# vtk DataFile Version 2.0
PFLOTRAN output
ASCII
DATASET UNSTRUCTURED_GRID
POINTS          462 float
 0.000000E+00  0.000000E+00  0.000000E+00
 2.000000E+03  0.000000E+00  0.000000E+00
 4.000000E+03  0.000000E+00  0.000000E+00
 6.000000E+03  0.000000E+00  0.000000E+00
 8.000000E+03  0.000000E+00  0.000000E+00
 1.000000E+04  0.000000E+00  0.000000E+00
 1.200000E+04  0.000000E+00  0.000000E+00
 1.400000E+04  0.000000E+00  0.000000E+00
 1.600000E+04  0.000000E+00  0.000000E+00
 1.800000E+04  0.000000E+00  0.000000E+00
 2.000000E+04  0.000000E+00  0.000000E+00
 0.000000E+00  1.000000E+00  0.000000E+00
 2.000000E+03  1.000000E+00  0.000000E+00
 4.000000E+03  1.000000E+00  0.000000E+00
 6.000000E+03  1.000000E+00  0.000000E+00
 8.000000E+03  1.000000E+00  0.000000E+00
 1.000000E+04  1.000000E+00  0.000000E+00
 1.200000E+04  1.000000E+00  0.000000E+00
 1.400000E+04  1.000000E+00  0.000000E+00
 1.600000E+04  1.000000E+00  0.000000E+00
 1.800000E+04  1.000000E+00  0.000000E+00
 2.000000E+04  1.000000E+00  0.000000E+00
 0.000000E+00  0.000000E+00  5.000000E+00
 2.000000E+03  0.000000E+00  5.000000E+00
 4.000000E+03  0.000000E+00  5.000000E+00
 6.000000E+03  0.000000E+00  5.000000E+00
 8.000000E+03  0.000000E+00  5.000000E+00
 1.000000E+04  0.000000E+00  5.000000E+00
 1.200000E+04  0.000000E+00  5.000000E+00
 1.400000E+04  0.000000E+00  5.000000E+00
 1.600000E+04  0.000000E+00  5.000000E+00
 1.800000E+04  0.000000E+00  5.000000E+00
 2.000000E+04  0.000000E+00  5.000000E+00
 0.000000E+00  1.000000E+00  5.000000E+00
 2.000000E+03  1.000000E+00  5.000000E+00
 4.000000E+03  1.000000E+00  5.000000E+00
 6.000000E+03  1.000000E+00  5.000000E+00
 8.000000E+03  1.000000E+00  5.000000E+00
 1.000000E+04  1.000000E+00  5.000000E+00
 1.200000E+04  1.000000E+00  5.000000E+00
 1.400000E+04  1.000000E+00  5.000000E+00
 1.600000E+04  1.000000E+00  5.000000E+00
 1.800000E+04  1.000000E+00  5.000000E+00
 2.000000E+04  1.000000E+00  5.000000E+00
 0.000000E+00  0.000000E+00  1.000000E+01
 2.000000E+03  0.000000E+00  1.000000E+01
 4.000000E+03  0.000000E+00  1.000000E+01
 6.000000E+03  0.000000E+00  1.000000E+01
 8.000000E+03  0.000000E+00  1.000000E+01
 1.000000E+04  0.000000E+00  1.000000E+01
 1.200000E+04  0.000000E+00  1.000000E+01
 1.400000E+04  0.000000E+00  1.000000E+01
 1.600000E+04  0.000000E+00  1.000000E+01
 1.800000E+04  0.000000E+00  1.000000E+01
 2.000000E+04  0.000000E+00  1.000000E+01
 0.000000E+00  1.000000E+00  1.000000E+01
 2.000000E+03  1.000000E+00  1.000000E+01
 4.000000E+03  1.000000E+00  1.000000E+01
 6.000000E+03  1.000000E+00  1.000000E+01
 8.000000E+03  1.000000E+00  1.000000E+01
 1.000000E+04  1.000000E+00  1.000000E+01
 1.200000E+04  1.000000E+00  1.000000E+01
 1.400000E+04  1.000000E+00  1.000000E+01
 1.600000E+04  1.000000E+00  1.000000E+01
 1.800000E+04  1.000000E+00  1.000000E+01
 2.000000E+04  1.000000E+00  1.000000E+01
 0.000000E+00  0.000000E+00  1.500000E+01
 2.000000E+03  0.000000E+00  1.500000E+01
 4.000000E+03  0.000000E+00  1.500000E+01
 6.000000E+03  0.000000E+00  1.500000E+01
 8.000000E+03  0.000000E+00  1.500000E+01
 1.000000E+04  0.000000E+00  1.500000E+01
 1.200000E+04  0.000000E+00  1.500000E+01
 1.400000E+04  0.000000E+00  1.500000E+01
 1.600000E+04  0.000000E+00  1.500000E+01
 1.800000E+04  0.000000E+00  1.500000E+01
 2.000000E+04  0.000000E+00  1.500000E+01
 0.000000E+00  1.000000E+00  1.500000E+01
 2.000000E+03  1.000000E+00  1.500000E+01
 4.000000E+03  1.000000E+00  1.500000E+01
 6.000000E+03  1.000000E+00  1.500000E+01
 8.000000E+03  1.000000E+00  1.500000E+01
 1.000000E+04  1.000000E+00  1.500000E+01
 1.200000E+04  1.000000E+00  1.500000E+01
 1.400000E+04  1.000000E+00  1.500000E+01
 1.600000E+04  1.000000E+00  1.500000E+01
 1.800000E+04  1.000000E+00  1.500000E+01
 2.000000E+04  1.000000E+00  1.500000E+01
 0.000000E+00  0.000000E+00  2.000000E+01
 2.000000E+03  0.000000E+00  2.000000E+01
 4.000000E+03  0.000000E+00  2.000000E+01
 6.000000E+03  0.000000E+00  2.000000E+01
 8.000000E+03  0.000000E+00  2.000000E+01
 1.000000E+04  0.000000E+00  2.000000E+01
 1.200000E+04  0.000000E+00  2.000000E+01
 1.400000E+04  0.000000E+00  2.000000E+01
 1.600000E+04  0.000000E+00  2.000000E+01
 1.800000E+04  0.000000E+00  2.000000E+01
 2.000000E+04  0.000000E+00  2.000000E+01
 0.000000E+00  1.000000E+00  2.000000E+01
 2.000000E+03  1.000000E+00  2.000000E+01
 4.000000E+03  1.000000E+00  2.000000E+01
 6.000000E+03  1.000000E+00  2.000000E+01
 8.000000E+03  1.000000E+00  2.000000E+01
 1.000000E+04  1.000000E+00  2.000000E+01
 1.200000E+04  1.000000E+00  2.000000E+01
 1.400000E+04  1.000000E+00  2.000000E+01
 1.600000E+04  1.000000E+00  2.000000E+01
 1.800000E+04  1.000000E+00  2.000000E+01
 2.000000E+04  1.000000E+00  2.000000E+01
 0.000000E+00  0.000000E+00  2.500000E+01
 2.000000E+03  0.000000E+00  2.500000E+01
 4.000000E+03  0.000000E+00  2.500000E+01
 6.000000E+03  0.000000E+00  2.500000E+01
 8.000000E+03  0.000000E+00  2.500000E+01
 1.000000E+04  0.000000E+00  2.500000E+01
 1.200000E+04  0.000000E+00  2.500000E+01
 1.400000E+04  0.000000E+00  2.500000E+01
 1.600000E+04  0.000000E+00  2.500000E+01
 1.800000E+04  0.000000E+00  2.500000E+01
 2.000000E+04  0.000000E+00  2.500000E+01
 0.000000E+00  1.000000E+00  2.500000E+01
 2.000000E+03  1.000000E+00  2.500000E+01
 4.000000E+03  1.000000E+00  2.500000E+01
 6.000000E+03  1.000000E+00  2.500000E+01
 8.000000E+03  1.000000E+00  2.500000E+01
 1.000000E+04  1.000000E+00  2.500000E+01
 1.200000E+04  1.000000E+00  2.500000E+01
 1.400000E+04  1.000000E+00  2.500000E+01
 1.600000E+04  1.000000E+00  2.500000E+01
 1.800000E+04  1.000000E+00  2.500000E+01
 2.000000E+04  1.000000E+00  2.500000E+01
 0.000000E+00  0.000000E+00  3.000000E+01
 2.000000E+03  0.000000E+00  3.000000E+01
 4.000000E+03  0.000000E+00  3.000000E+01
 6.000000E+03  0.000000E+00  3.000000E+01
 8.000000E+03  0.000000E+00  3.000000E+01
 1.000000E+04  0.000000E+00  3.000000E+01
 1.200000E+04  0.000000E+00  3.000000E+01
 1.400000E+04  0.000000E+00  3.000000E+01
 1.600000E+04  0.000000E+00  3.000000E+01
 1.800000E+04  0.000000E+00  3.000000E+01
 2.000000E+04  0.000000E+00  3.000000E+01
 0.000000E+00  1.000000E+00  3.000000E+01
 2.000000E+03  1.000000E+00  3.000000E+01
 4.000000E+03  1.000000E+00  3.000000E+01
 6.000000E+03  1.000000E+00  3.000000E+01
 8.000000E+03  1.000000E+00  3.000000E+01
 1.000000E+04  1.000000E+00  3.000000E+01
 1.200000E+04  1.000000E+00  3.000000E+01
 1.400000E+04  1.000000E+00  3.000000E+01
 1.600000E+04  1.000000E+00  3.000000E+01
 1.800000E+04  1.000000E+00  3.000000E+01
 2.000000E+04  1.000000E+00  3.000000E+01
 0.000000E+00  0.000000E+00  3.500000E+01
 2.000000E+03  0.000000E+00  3.500000E+01
 4.000000E+03  0.000000E+00  3.500000E+01
 6.000000E+03  0.000000E+00  3.500000E+01
 8.000000E+03  0.000000E+00  3.500000E+01
 1.000000E+04  0.000000E+00  3.500000E+01
 1.200000E+04  0.000000E+00  3.500000E+01
 1.400000E+04  0.000000E+00  3.500000E+01
 1.600000E+04  0.000000E+00  3.500000E+01
 1.800000E+04  0.000000E+00  3.500000E+01
 2.000000E+04  0.000000E+00  3.500000E+01
 0.000000E+00  1.000000E+00  3.500000E+01
 2.000000E+03  1.000000E+00  3.500000E+01
 4.000000E+03  1.000000E+00  3.500000E+01
 6.000000E+03  1.000000E+00  3.500000E+01
 8.000000E+03  1.000000E+00  3.500000E+01
 1.000000E+04  1.000000E+00  3.500000E+01
 1.200000E+04  1.000000E+00  3.500000E+01
 1.400000E+04  1.000000E+00  3.500000E+01
 1.600000E+04  1.000000E+00  3.500000E+01
 1.800000E+04  1.000000E+00  3.500000E+01
 2.000000E+04  1.000000E+00  3.500000E+01
 0.000000E+00  0.000000E+00  4.000000E+01
 2.000000E+03  0.000000E+00  4.000000E+01
 4.000000E+03  0.000000E+00  4.000000E+01
 6.000000E+03  0.000000E+00  4.000000E+01
 8.000000E+03  0.000000E+00  4.000000E+01
 1.000000E+04  0.000000E+00  4.000000E+01
 1.200000E+04  0.000000E+00  4.000000E+01
 1.400000E+04  0.000000E+00  4.000000E+01
 1.600000E+04  0.000000E+00  4.000000E+01
 1.800000E+04  0.000000E+00  4.000000E+01
 2.000000E+04  0.000000E+00  4.000000E+01
 0.000000E+00  1.000000E+00  4.000000E+01
 2.000000E+03  1.000000E+00  4.000000E+01
 4.000000E+03  1.000000E+00  4.000000E+01
 6.000000E+03  1.000000E+00  4.000000E+01
 8.000000E+03  1.000000E+00  4.000000E+01
 1.000000E+04  1.000000E+00  4.000000E+01
 1.200000E+04  1.000000E+00  4.000000E+01
 1.400000E+04  1.000000E+00  4.000000E+01
 1.600000E+04  1.000000E+00  4.000000E+01
 1.800000E+04  1.000000E+00  4.000000E+01
 2.000000E+04  1.000000E+00  4.000000E+01
 0.000000E+00  0.000000E+00  4.500000E+01
 2.000000E+03  0.000000E+00  4.500000E+01
 4.000000E+03  0.000000E+00  4.500000E+01
 6.000000E+03  0.000000E+00  4.500000E+01
 8.000000E+03  0.000000E+00  4.500000E+01
 1.000000E+04  0.000000E+00  4.500000E+01
 1.200000E+04  0.000000E+00  4.500000E+01
 1.400000E+04  0.000000E+00  4.500000E+01
 1.600000E+04  0.000000E+00  4.500000E+01
 1.800000E+04  0.000000E+00  4.500000E+01
 2.000000E+04  0.000000E+00  4.500000E+01
 0.000000E+00  1.000000E+00  4.500000E+01
 2.000000E+03  1.000000E+00  4.500000E+01
 4.000000E+03  1.000000E+00  4.500000E+01
 6.000000E+03  1.000000E+00  4.500000E+01
 8.000000E+03  1.000000E+00  4.500000E+01
 1.000000E+04  1.000000E+00  4.500000E+01
 1.200000E+04  1.000000E+00  4.500000E+01
 1.400000E+04  1.000000E+00  4.500000E+01
 1.600000E+04  1.000000E+00  4.500000E+01
 1.800000E+04  1.000000E+00  4.500000E+01
 2.000000E+04  1.000000E+00  4.500000E+01
 0.000000E+00  0.000000E+00  5.000000E+01
 2.000000E+03  0.000000E+00  5.000000E+01
 4.000000E+03  0.000000E+00  5.000000E+01
 6.000000E+03  0.000000E+00  5.000000E+01
 8.000000E+03  0.000000E+00  5.000000E+01
 1.000000E+04  0.000000E+00  5.000000E+01
 1.200000E+04  0.000000E+00  5.000000E+01
 1.400000E+04  0.000000E+00  5.000000E+01
 1.600000E+04  0.000000E+00  5.000000E+01
 1.800000E+04  0.000000E+00  5.000000E+01
 2.000000E+04  0.000000E+00  5.000000E+01
 0.000000E+00  1.000000E+00  5.000000E+01
 2.000000E+03  1.000000E+00  5.000000E+01
 4.000000E+03  1.000000E+00  5.000000E+01
 6.000000E+03  1.000000E+00  5.000000E+01
[...]
CELL_DATA      200
SCALARS Porosity             float 1
LOOKUP_TABLE default
 4.377100E-01  4.377100E-01  4.377100E-01  4.377100E-01  4.377100E-01  4.377100E-01  4.377100E-01  4.377100E-01  4.377100E-01  4.377099E-01
 4.377100E-01  4.377100E-01  4.377100E-01  4.377100E-01  4.377100E-01  4.377100E-01  4.377100E-01  4.377100E-01  4.377100E-01  4.377100E-01
 4.377100E-01  4.377100E-01  4.377100E-01  4.377100E-01  4.377100E-01  4.377100E-01  4.377100E-01  4.377100E-01  4.377100E-01  4.377100E-01
 4.377100E-01  4.377100E-01  4.377100E-01  4.377100E-01  4.377100E-01  4.377100E-01  4.377100E-01  4.377100E-01  4.377100E-01  4.377100E-01
 4.377100E-01  4.377100E-01  4.377100E-01  4.377100E-01  4.377100E-01  4.377100E-01  4.377100E-01  4.377100E-01  4.377100E-01  4.377100E-01
 4.377100E-01  4.377100E-01  4.377100E-01  4.377100E-01  4.377100E-01  4.377100E-01  4.377100E-01  4.377100E-01  4.377100E-01  4.377100E-01
 4.377098E-01  4.377100E-01  4.377100E-01  4.377100E-01  4.377100E-01  4.377100E-01  4.377100E-01  4.377100E-01  4.377100E-01  4.377100E-01
 4.377098E-01  4.377100E-01  4.377100E-01  4.377100E-01  4.377100E-01  4.377100E-01  4.377100E-01  4.377100E-01  4.377100E-01  4.377100E-01
 4.377098E-01  4.377100E-01  4.377100E-01  4.377100E-01  4.377100E-01  4.377100E-01  4.377100E-01  4.377100E-01  4.377100E-01  4.377100E-01
 4.377098E-01  4.377100E-01  4.377100E-01  4.377100E-01  4.377100E-01  4.377100E-01  4.377100E-01  4.377100E-01  4.377100E-01  4.377100E-01
 4.377098E-01  4.377100E-01  4.377100E-01  4.377100E-01  4.377100E-01  4.377100E-01  4.377100E-01  4.377100E-01  4.377100E-01  4.377100E-01
 4.377098E-01  4.377100E-01  4.377100E-01  4.377100E-01  4.377100E-01  4.377100E-01  4.377100E-01  4.377100E-01  4.377100E-01  4.377100E-01
 4.377098E-01  4.377100E-01  4.377100E-01  4.377100E-01  4.377100E-01  4.377100E-01  4.377100E-01  4.377100E-01  4.377100E-01  4.377100E-01
 4.377098E-01  4.377100E-01  4.377100E-01  4.377100E-01  4.377100E-01  4.377100E-01  4.377100E-01  4.377100E-01  4.377100E-01  4.377100E-01
 4.377100E-01  4.377100E-01  4.377100E-01  4.377100E-01  4.377100E-01  4.377100E-01  4.377100E-01  4.377100E-01  4.377100E-01  4.377100E-01
 4.377100E-01  4.377100E-01  4.377100E-01  4.377100E-01  4.377100E-01  4.377100E-01  4.377100E-01  4.377100E-01  4.377100E-01  4.377100E-01
 4.377100E-01  4.377100E-01  4.377100E-01  4.377100E-01  4.377100E-01  4.377100E-01  4.377100E-01  4.377100E-01  4.377100E-01  4.377100E-01
 4.377100E-01  4.377100E-01  4.377100E-01  4.377100E-01  4.377100E-01  4.377100E-01  4.377100E-01  4.377100E-01  4.377100E-01  4.377100E-01
 4.377100E-01  4.377100E-01  4.377100E-01  4.377100E-01  4.377100E-01  4.377100E-01  4.377100E-01  4.377100E-01  4.377100E-01  4.377100E-01
 4.377100E-01  4.377100E-01  4.377100E-01  4.377100E-01  4.377100E-01  4.377100E-01  4.377100E-01  4.377100E-01  4.377100E-01  4.377100E-01


SCALARS Permeability         float 1
LOOKUP_TABLE default
 8.829805E-13  8.829804E-13  8.829803E-13  8.829803E-13  8.829803E-13  8.829803E-13  8.829803E-13  8.829803E-13  8.829803E-13  8.829803E-13
 8.829805E-13  8.829804E-13  8.829803E-13  8.829803E-13  8.829803E-13  8.829803E-13  8.829803E-13  8.829803E-13  8.829803E-13  8.829803E-13
 8.829805E-13  8.829804E-13  8.829803E-13  8.829803E-13  8.829803E-13  8.829803E-13  8.829803E-13  8.829803E-13  8.829803E-13  8.829803E-13
 8.829805E-13  8.829804E-13  8.829803E-13  8.829803E-13  8.829803E-13  8.829803E-13  8.829803E-13  8.829803E-13  8.829803E-13  8.829803E-13
 8.829805E-13  8.829804E-13  8.829803E-13  8.829803E-13  8.829803E-13  8.829803E-13  8.829803E-13  8.829803E-13  8.829803E-13  8.829803E-13
 8.829805E-13  8.829804E-13  8.829804E-13  8.829803E-13  8.829803E-13  8.829803E-13  8.829803E-13  8.829803E-13  8.829803E-13  8.829803E-13
 8.829796E-13  8.829804E-13  8.829804E-13  8.829803E-13  8.829803E-13  8.829803E-13  8.829803E-13  8.829803E-13  8.829803E-13  8.829803E-13
 8.829796E-13  8.829804E-13  8.829804E-13  8.829803E-13  8.829803E-13  8.829803E-13  8.829803E-13  8.829803E-13  8.829803E-13  8.829803E-13
 8.829797E-13  8.829804E-13  8.829804E-13  8.829803E-13  8.829803E-13  8.829803E-13  8.829803E-13  8.829803E-13  8.829803E-13  8.829803E-13
 8.829797E-13  8.829804E-13  8.829804E-13  8.829803E-13  8.829803E-13  8.829803E-13  8.829803E-13  8.829803E-13  8.829803E-13  8.829803E-13
 8.829797E-13  8.829804E-13  8.829804E-13  8.829803E-13  8.829803E-13  8.829803E-13  8.829803E-13  8.829803E-13  8.829803E-13  8.829803E-13
 8.829797E-13  8.829804E-13  8.829804E-13  8.829803E-13  8.829803E-13  8.829803E-13  8.829803E-13  8.829803E-13  8.829803E-13  8.829803E-13
 8.829797E-13  8.829804E-13  8.829804E-13  8.829804E-13  8.829803E-13  8.829803E-13  8.829803E-13  8.829803E-13  8.829803E-13  8.829803E-13
 8.829797E-13  8.829804E-13  8.829804E-13  8.829804E-13  8.829803E-13  8.829803E-13  8.829803E-13  8.829803E-13  8.829803E-13  8.829803E-13
 8.829805E-13  8.829804E-13  8.829804E-13  8.829804E-13  8.829803E-13  8.829803E-13  8.829803E-13  8.829803E-13  8.829803E-13  8.829803E-13
 8.829805E-13  8.829804E-13  8.829804E-13  8.829804E-13  8.829803E-13  8.829803E-13  8.829803E-13  8.829803E-13  8.829803E-13  8.829803E-13
 8.829805E-13  8.829804E-13  8.829804E-13  8.829804E-13  8.829803E-13  8.829803E-13  8.829803E-13  8.829803E-13  8.829803E-13  8.829803E-13
 8.829805E-13  8.829804E-13  8.829804E-13  8.829804E-13  8.829804E-13  8.829803E-13  8.829803E-13  8.829803E-13  8.829803E-13  8.829803E-13
 8.829805E-13  8.829804E-13  8.829804E-13  8.829804E-13  8.829804E-13  8.829803E-13  8.829803E-13  8.829803E-13  8.829803E-13  8.829803E-13
 8.829805E-13  8.829804E-13  8.829804E-13  8.829804E-13  8.829804E-13  8.829804E-13  8.829803E-13  8.829803E-13  8.829803E-13  8.829803E-13


SCALARS Liquid_Pressure      float 1
LOOKUP_TABLE default
 8.294116E+06  7.924566E+06  7.755912E+06  7.658741E+06  7.598359E+06  7.559151E+06  7.532337E+06  7.512621E+06  7.496882E+06  7.483430E+06
 8.248949E+06  7.879403E+06  7.710754E+06  7.613585E+06  7.553205E+06  7.513998E+06  7.487185E+06  7.467469E+06  7.451730E+06  7.438279E+06
 8.203789E+06  7.834242E+06  7.665598E+06  7.568431E+06  7.508052E+06  7.468846E+06  7.442033E+06  7.422318E+06  7.406580E+06  7.393129E+06
 8.158634E+06  7.789082E+06  7.620442E+06  7.523278E+06  7.462900E+06  7.423695E+06  7.396884E+06  7.377169E+06  7.361431E+06  7.347980E+06
 8.113485E+06  7.743924E+06  7.575288E+06  7.478126E+06  7.417750E+06  7.378546E+06  7.351735E+06  7.332021E+06  7.316283E+06  7.302833E+06
 8.068342E+06  7.698767E+06  7.530135E+06  7.432975E+06  7.372601E+06  7.333398E+06  7.306587E+06  7.286874E+06  7.271137E+06  7.257687E+06
 8.023205E+06  7.653610E+06  7.484983E+06  7.387826E+06  7.327453E+06  7.288251E+06  7.261441E+06  7.241728E+06  7.225991E+06  7.212542E+06
 7.978063E+06  7.608456E+06  7.439832E+06  7.342678E+06  7.282306E+06  7.243105E+06  7.216296E+06  7.196584E+06  7.180847E+06  7.167398E+06
 7.932914E+06  7.563302E+06  7.394683E+06  7.297531E+06  7.237161E+06  7.197961E+06  7.171153E+06  7.151440E+06  7.135705E+06  7.122256E+06
 7.887759E+06  7.518150E+06  7.349535E+06  7.252385E+06  7.192017E+06  7.152818E+06  7.126010E+06  7.106298E+06  7.090563E+06  7.077114E+06
 7.842599E+06  7.472999E+06  7.304388E+06  7.207241E+06  7.146874E+06  7.107676E+06  7.080869E+06  7.061158E+06  7.045423E+06  7.031974E+06
 7.797433E+06  7.427849E+06  7.259243E+06  7.162098E+06  7.101732E+06  7.062535E+06  7.035729E+06  7.016018E+06  7.000284E+06  6.986836E+06
 7.752261E+06  7.382701E+06  7.214098E+06  7.116956E+06  7.056592E+06  7.017396E+06  6.990591E+06  6.970880E+06  6.955146E+06  6.941698E+06
 7.707083E+06  7.337553E+06  7.168955E+06  7.071816E+06  7.011453E+06  6.972258E+06  6.945453E+06  6.925744E+06  6.910010E+06  6.896562E+06
 7.661899E+06  7.292407E+06  7.123814E+06  7.026676E+06  6.966315E+06  6.927121E+06  6.900317E+06  6.880608E+06  6.864875E+06  6.851428E+06
 7.616721E+06  7.247263E+06  7.078673E+06  6.981538E+06  6.921179E+06  6.881986E+06  6.855182E+06  6.835474E+06  6.819741E+06  6.806294E+06
 7.571549E+06  7.202119E+06  7.033534E+06  6.936402E+06  6.876044E+06  6.836852E+06  6.810049E+06  6.790341E+06  6.774608E+06  6.761162E+06
 7.526383E+06  7.156977E+06  6.988396E+06  6.891266E+06  6.830910E+06  6.791719E+06  6.764917E+06  6.745209E+06  6.729477E+06  6.716031E+06
 7.481223E+06  7.111836E+06  6.943259E+06  6.846132E+06  6.785777E+06  6.746587E+06  6.719786E+06  6.700078E+06  6.684347E+06  6.670901E+06
 7.436070E+06  7.066696E+06  6.898124E+06  6.800999E+06  6.740646E+06  6.701456E+06  6.674656E+06  6.654949E+06  6.639218E+06  6.625772E+06


SCALARS Temperature          float 1
LOOKUP_TABLE default
 1.500464E+02  1.500246E+02  1.500146E+02  1.500089E+02  1.500053E+02  1.500030E+02  1.500014E+02  1.500002E+02  1.499993E+02  1.499985E+02
 1.500464E+02  1.500246E+02  1.500146E+02  1.500089E+02  1.500053E+02  1.500030E+02  1.500014E+02  1.500002E+02  1.499993E+02  1.499985E+02
 1.500464E+02  1.500246E+02  1.500146E+02  1.500089E+02  1.500053E+02  1.500030E+02  1.500014E+02  1.500002E+02  1.499993E+02  1.499985E+02
 1.500464E+02  1.500246E+02  1.500146E+02  1.500089E+02  1.500053E+02  1.500030E+02  1.500014E+02  1.500002E+02  1.499993E+02  1.499985E+02
 1.500464E+02  1.500247E+02  1.500146E+02  1.500089E+02  1.500053E+02  1.500030E+02  1.500014E+02  1.500002E+02  1.499993E+02  1.499985E+02
 1.500464E+02  1.500247E+02  1.500146E+02  1.500089E+02  1.500053E+02  1.500030E+02  1.500014E+02  1.500002E+02  1.499993E+02  1.499985E+02
 1.500463E+02  1.500247E+02  1.500146E+02  1.500089E+02  1.500053E+02  1.500030E+02  1.500014E+02  1.500002E+02  1.499993E+02  1.499985E+02
 1.500463E+02  1.500247E+02  1.500146E+02  1.500089E+02  1.500053E+02  1.500030E+02  1.500014E+02  1.500002E+02  1.499993E+02  1.499985E+02
 1.500463E+02  1.500247E+02  1.500147E+02  1.500089E+02  1.500053E+02  1.500030E+02  1.500014E+02  1.500002E+02  1.499993E+02  1.499985E+02
 1.500463E+02  1.500247E+02  1.500147E+02  1.500089E+02  1.500053E+02  1.500030E+02  1.500014E+02  1.500002E+02  1.499993E+02  1.499985E+02
 1.500463E+02  1.500247E+02  1.500147E+02  1.500089E+02  1.500053E+02  1.500030E+02  1.500014E+02  1.500002E+02  1.499993E+02  1.499985E+02
 1.500464E+02  1.500247E+02  1.500147E+02  1.500089E+02  1.500053E+02  1.500030E+02  1.500014E+02  1.500002E+02  1.499993E+02  1.499985E+02
 1.500464E+02  1.500247E+02  1.500147E+02  1.500089E+02  1.500053E+02  1.500030E+02  1.500014E+02  1.500002E+02  1.499993E+02  1.499985E+02
 1.500464E+02  1.500247E+02  1.500147E+02  1.500089E+02  1.500053E+02  1.500030E+02  1.500014E+02  1.500002E+02  1.499993E+02  1.499985E+02
 1.500466E+02  1.500247E+02  1.500147E+02  1.500089E+02  1.500053E+02  1.500030E+02  1.500014E+02  1.500002E+02  1.499993E+02  1.499985E+02
 1.500466E+02  1.500247E+02  1.500147E+02  1.500089E+02  1.500053E+02  1.500030E+02  1.500014E+02  1.500002E+02  1.499993E+02  1.499985E+02
 1.500466E+02  1.500247E+02  1.500147E+02  1.500089E+02  1.500053E+02  1.500030E+02  1.500014E+02  1.500002E+02  1.499993E+02  1.499985E+02
 1.500466E+02  1.500247E+02  1.500147E+02  1.500089E+02  1.500053E+02  1.500030E+02  1.500014E+02  1.500002E+02  1.499993E+02  1.499985E+02
 1.500466E+02  1.500247E+02  1.500147E+02  1.500089E+02  1.500053E+02  1.500030E+02  1.500014E+02  1.500002E+02  1.499993E+02  1.499985E+02
 1.500466E+02  1.500247E+02  1.500147E+02  1.500089E+02  1.500053E+02  1.500030E+02  1.500014E+02  1.500002E+02  1.499993E+02  1.499985E+02


SCALARS pH                   float 1
LOOKUP_TABLE default
 6.144394E+00  6.144361E+00  6.144347E+00  6.144338E+00  6.144333E+00  6.144329E+00  6.144327E+00  6.144325E+00  6.144324E+00  6.144323E+00
 6.144394E+00  6.144361E+00  6.144347E+00  6.144338E+00  6.144333E+00  6.144329E+00  6.144327E+00  6.144325E+00  6.144324E+00  6.144323E+00
 6.144394E+00  6.144361E+00  6.144347E+00  6.144338E+00  6.144333E+00  6.144329E+00  6.144327E+00  6.144325E+00  6.144324E+00  6.144323E+00
 6.144394E+00  6.144362E+00  6.144347E+00  6.144338E+00  6.144333E+00  6.144329E+00  6.144327E+00  6.144325E+00  6.144324E+00  6.144323E+00
 6.144394E+00  6.144362E+00  6.144347E+00  6.144338E+00  6.144333E+00  6.144329E+00  6.144327E+00  6.144325E+00  6.144324E+00  6.144323E+00
 6.144394E+00  6.144362E+00  6.144347E+00  6.144338E+00  6.144333E+00  6.144329E+00  6.144327E+00  6.144325E+00  6.144324E+00  6.144323E+00
 6.144399E+00  6.144362E+00  6.144347E+00  6.144338E+00  6.144333E+00  6.144329E+00  6.144327E+00  6.144325E+00  6.144324E+00  6.144323E+00
 6.144399E+00  6.144362E+00  6.144347E+00  6.144338E+00  6.144333E+00  6.144329E+00  6.144327E+00  6.144325E+00  6.144324E+00  6.144323E+00
 6.144399E+00  6.144362E+00  6.144347E+00  6.144338E+00  6.144333E+00  6.144329E+00  6.144327E+00  6.144325E+00  6.144324E+00  6.144323E+00
 6.144399E+00  6.144362E+00  6.144347E+00  6.144338E+00  6.144333E+00  6.144329E+00  6.144327E+00  6.144325E+00  6.144324E+00  6.144323E+00
 6.144399E+00  6.144362E+00  6.144347E+00  6.144338E+00  6.144333E+00  6.144329E+00  6.144327E+00  6.144325E+00  6.144324E+00  6.144323E+00
 6.144399E+00  6.144362E+00  6.144347E+00  6.144338E+00  6.144333E+00  6.144329E+00  6.144327E+00  6.144325E+00  6.144324E+00  6.144323E+00
 6.144399E+00  6.144362E+00  6.144347E+00  6.144338E+00  6.144333E+00  6.144329E+00  6.144327E+00  6.144325E+00  6.144324E+00  6.144323E+00
 6.144399E+00  6.144362E+00  6.144347E+00  6.144338E+00  6.144333E+00  6.144329E+00  6.144327E+00  6.144325E+00  6.144324E+00  6.144323E+00
 6.144394E+00  6.144362E+00  6.144347E+00  6.144338E+00  6.144333E+00  6.144329E+00  6.144327E+00  6.144325E+00  6.144324E+00  6.144323E+00
 6.144394E+00  6.144362E+00  6.144347E+00  6.144338E+00  6.144333E+00  6.144329E+00  6.144327E+00  6.144325E+00  6.144324E+00  6.144323E+00
 6.144394E+00  6.144362E+00  6.144347E+00  6.144338E+00  6.144333E+00  6.144329E+00  6.144327E+00  6.144325E+00  6.144324E+00  6.144323E+00
 6.144394E+00  6.144362E+00  6.144347E+00  6.144338E+00  6.144333E+00  6.144329E+00  6.144327E+00  6.144325E+00  6.144324E+00  6.144323E+00
 6.144394E+00  6.144362E+00  6.144347E+00  6.144338E+00  6.144333E+00  6.144329E+00  6.144327E+00  6.144325E+00  6.144324E+00  6.144323E+00
 6.144394E+00  6.144362E+00  6.144347E+00  6.144338E+00  6.144333E+00  6.144329E+00  6.144327E+00  6.144325E+00  6.144324E+00  6.144323E+00


SCALARS Total_H+             float 1
LOOKUP_TABLE default
-3.042616E-03 -3.043367E-03 -3.043715E-03 -3.043915E-03 -3.044041E-03 -3.044122E-03 -3.044178E-03 -3.044219E-03 -3.044251E-03 -3.044278E-03
-3.042615E-03 -3.043367E-03 -3.043714E-03 -3.043915E-03 -3.044040E-03 -3.044122E-03 -3.044178E-03 -3.044218E-03 -3.044251E-03 -3.044278E-03
-3.042615E-03 -3.043366E-03 -3.043713E-03 -3.043914E-03 -3.044040E-03 -3.044121E-03 -3.044177E-03 -3.044218E-03 -3.044250E-03 -3.044277E-03
-3.042615E-03 -3.043366E-03 -3.043713E-03 -3.043914E-03 -3.044039E-03 -3.044121E-03 -3.044177E-03 -3.044218E-03 -3.044250E-03 -3.044277E-03
-3.042615E-03 -3.043365E-03 -3.043712E-03 -3.043913E-03 -3.044039E-03 -3.044120E-03 -3.044176E-03 -3.044217E-03 -3.044249E-03 -3.044276E-03
-3.042614E-03 -3.043364E-03 -3.043712E-03 -3.043913E-03 -3.044038E-03 -3.044120E-03 -3.044176E-03 -3.044217E-03 -3.044249E-03 -3.044276E-03
-3.042606E-03 -3.043364E-03 -3.043711E-03 -3.043912E-03 -3.044038E-03 -3.044119E-03 -3.044175E-03 -3.044216E-03 -3.044248E-03 -3.044275E-03
-3.042605E-03 -3.043363E-03 -3.043711E-03 -3.043912E-03 -3.044037E-03 -3.044119E-03 -3.044175E-03 -3.044216E-03 -3.044248E-03 -3.044275E-03
-3.042604E-03 -3.043363E-03 -3.043710E-03 -3.043911E-03 -3.044037E-03 -3.044118E-03 -3.044174E-03 -3.044215E-03 -3.044247E-03 -3.044274E-03
-3.042603E-03 -3.043362E-03 -3.043710E-03 -3.043911E-03 -3.044036E-03 -3.044118E-03 -3.044174E-03 -3.044215E-03 -3.044247E-03 -3.044274E-03
-3.042603E-03 -3.043361E-03 -3.043709E-03 -3.043910E-03 -3.044036E-03 -3.044117E-03 -3.044173E-03 -3.044214E-03 -3.044246E-03 -3.044273E-03
-3.042602E-03 -3.043361E-03 -3.043708E-03 -3.043910E-03 -3.044035E-03 -3.044117E-03 -3.044173E-03 -3.044214E-03 -3.044246E-03 -3.044273E-03
-3.042601E-03 -3.043360E-03 -3.043708E-03 -3.043909E-03 -3.044035E-03 -3.044116E-03 -3.044172E-03 -3.044213E-03 -3.044245E-03 -3.044273E-03
-3.042600E-03 -3.043360E-03 -3.043707E-03 -3.043909E-03 -3.044034E-03 -3.044116E-03 -3.044172E-03 -3.044213E-03 -3.044245E-03 -3.044272E-03
-3.042603E-03 -3.043359E-03 -3.043707E-03 -3.043908E-03 -3.044034E-03 -3.044115E-03 -3.044171E-03 -3.044212E-03 -3.044244E-03 -3.044272E-03
-3.042603E-03 -3.043358E-03 -3.043706E-03 -3.043907E-03 -3.044033E-03 -3.044115E-03 -3.044171E-03 -3.044212E-03 -3.044244E-03 -3.044271E-03
-3.042603E-03 -3.043358E-03 -3.043706E-03 -3.043907E-03 -3.044033E-03 -3.044114E-03 -3.044170E-03 -3.044211E-03 -3.044243E-03 -3.044271E-03
-3.042602E-03 -3.043357E-03 -3.043705E-03 -3.043906E-03 -3.044032E-03 -3.044114E-03 -3.044170E-03 -3.044211E-03 -3.044243E-03 -3.044270E-03
-3.042602E-03 -3.043357E-03 -3.043705E-03 -3.043906E-03 -3.044032E-03 -3.044113E-03 -3.044169E-03 -3.044210E-03 -3.044242E-03 -3.044270E-03
-3.042602E-03 -3.043356E-03 -3.043704E-03 -3.043905E-03 -3.044031E-03 -3.044113E-03 -3.044169E-03 -3.044210E-03 -3.044242E-03 -3.044269E-03


SCALARS Total_SiO2(aq)       float 1
LOOKUP_TABLE default
 1.039603E-02  1.039416E-02  1.039330E-02  1.039281E-02  1.039250E-02  1.039231E-02  1.039217E-02  1.039207E-02  1.039199E-02  1.039192E-02
 1.039603E-02  1.039416E-02  1.039330E-02  1.039281E-02  1.039250E-02  1.039231E-02  1.039217E-02  1.039207E-02  1.039199E-02  1.039192E-02
 1.039603E-02  1.039416E-02  1.039330E-02  1.039281E-02  1.039250E-02  1.039231E-02  1.039217E-02  1.039207E-02  1.039199E-02  1.039192E-02
 1.039603E-02  1.039416E-02  1.039330E-02  1.039281E-02  1.039250E-02  1.039231E-02  1.039217E-02  1.039207E-02  1.039199E-02  1.039192E-02
 1.039603E-02  1.039416E-02  1.039330E-02  1.039281E-02  1.039250E-02  1.039231E-02  1.039217E-02  1.039207E-02  1.039199E-02  1.039192E-02
 1.039603E-02  1.039416E-02  1.039330E-02  1.039281E-02  1.039250E-02  1.039231E-02  1.039217E-02  1.039207E-02  1.039199E-02  1.039192E-02
 1.039625E-02  1.039416E-02  1.039330E-02  1.039281E-02  1.039250E-02  1.039231E-02  1.039217E-02  1.039207E-02  1.039199E-02  1.039192E-02
 1.039625E-02  1.039416E-02  1.039330E-02  1.039281E-02  1.039250E-02  1.039231E-02  1.039217E-02  1.039207E-02  1.039199E-02  1.039192E-02
 1.039625E-02  1.039416E-02  1.039330E-02  1.039281E-02  1.039250E-02  1.039231E-02  1.039217E-02  1.039207E-02  1.039199E-02  1.039192E-02
 1.039626E-02  1.039416E-02  1.039331E-02  1.039281E-02  1.039250E-02  1.039231E-02  1.039217E-02  1.039207E-02  1.039199E-02  1.039192E-02
 1.039626E-02  1.039417E-02  1.039331E-02  1.039281E-02  1.039251E-02  1.039231E-02  1.039217E-02  1.039207E-02  1.039199E-02  1.039192E-02
 1.039626E-02  1.039417E-02  1.039331E-02  1.039281E-02  1.039251E-02  1.039231E-02  1.039217E-02  1.039207E-02  1.039199E-02  1.039192E-02
 1.039626E-02  1.039417E-02  1.039331E-02  1.039281E-02  1.039251E-02  1.039231E-02  1.039217E-02  1.039207E-02  1.039199E-02  1.039192E-02
 1.039626E-02  1.039417E-02  1.039331E-02  1.039281E-02  1.039251E-02  1.039231E-02  1.039217E-02  1.039207E-02  1.039199E-02  1.039192E-02
 1.039605E-02  1.039417E-02  1.039331E-02  1.039281E-02  1.039251E-02  1.039231E-02  1.039217E-02  1.039207E-02  1.039199E-02  1.039192E-02
 1.039605E-02  1.039417E-02  1.039331E-02  1.039281E-02  1.039251E-02  1.039231E-02  1.039217E-02  1.039207E-02  1.039199E-02  1.039192E-02
 1.039605E-02  1.039417E-02  1.039331E-02  1.039281E-02  1.039251E-02  1.039231E-02  1.039217E-02  1.039207E-02  1.039199E-02  1.039192E-02
 1.039605E-02  1.039417E-02  1.039331E-02  1.039281E-02  1.039251E-02  1.039231E-02  1.039217E-02  1.039207E-02  1.039199E-02  1.039192E-02
 1.039605E-02  1.039417E-02  1.039331E-02  1.039281E-02  1.039251E-02  1.039231E-02  1.039217E-02  1.039207E-02  1.039199E-02  1.039192E-02