# vtk DataFile Version 2.0
PFLOTRAN output
ASCII
DATASET UNSTRUCTURED_GRID
POINTS          462 float
 0.000000E+00  0.000000E+00  0.000000E+00
 2.000000E+03  0.000000E+00  0.000000E+00
 4.000000E+03  0.000000E+00  0.000000E+00
 6.000000E+03  0.000000E+00  0.000000E+00
 8.000000E+03  0.000000E+00  0.000000E+00
 1.000000E+04  0.000000E+00  0.000000E+00
 1.200000E+04  0.000000E+00  0.000000E+00
 1.400000E+04  0.000000E+00  0.000000E+00
 1.600000E+04  0.000000E+00  0.000000E+00
 1.800000E+04  0.000000E+00  0.000000E+00
 2.000000E+04  0.000000E+00  0.000000E+00
 0.000000E+00  1.000000E+00  0.000000E+00
 2.000000E+03  1.000000E+00  0.000000E+00
 4.000000E+03  1.000000E+00  0.000000E+00
 6.000000E+03  1.000000E+00  0.000000E+00
 8.000000E+03  1.000000E+00  0.000000E+00
 1.000000E+04  1.000000E+00  0.000000E+00
 1.200000E+04  1.000000E+00  0.000000E+00
 1.400000E+04  1.000000E+00  0.000000E+00
 1.600000E+04  1.000000E+00  0.000000E+00
 1.800000E+04  1.000000E+00  0.000000E+00
 2.000000E+04  1.000000E+00  0.000000E+00
 0.000000E+00  0.000000E+00  5.000000E+00
 2.000000E+03  0.000000E+00  5.000000E+00
 4.000000E+03  0.000000E+00  5.000000E+00
 6.000000E+03  0.000000E+00  5.000000E+00
 8.000000E+03  0.000000E+00  5.000000E+00
 1.000000E+04  0.000000E+00  5.000000E+00
 1.200000E+04  0.000000E+00  5.000000E+00
 1.400000E+04  0.000000E+00  5.000000E+00
 1.600000E+04  0.000000E+00  5.000000E+00
 1.800000E+04  0.000000E+00  5.000000E+00
 2.000000E+04  0.000000E+00  5.000000E+00
 0.000000E+00  1.000000E+00  5.000000E+00
 2.000000E+03  1.000000E+00  5.000000E+00
 4.000000E+03  1.000000E+00  5.000000E+00
 6.000000E+03  1.000000E+00  5.000000E+00
 8.000000E+03  1.000000E+00  5.000000E+00
 1.000000E+04  1.000000E+00  5.000000E+00
 1.200000E+04  1.000000E+00  5.000000E+00
 1.400000E+04  1.000000E+00  5.000000E+00
 1.600000E+04  1.000000E+00  5.000000E+00
 1.800000E+04  1.000000E+00  5.000000E+00
 2.000000E+04  1.000000E+00  5.000000E+00
 0.000000E+00  0.000000E+00  1.000000E+01
 2.000000E+03  0.000000E+00  1.000000E+01
 4.000000E+03  0.000000E+00  1.000000E+01
 6.000000E+03  0.000000E+00  1.000000E+01
 8.000000E+03  0.000000E+00  1.000000E+01
 1.000000E+04  0.000000E+00  1.000000E+01
 1.200000E+04  0.000000E+00  1.000000E+01
 1.400000E+04  0.000000E+00  1.000000E+01
 1.600000E+04  0.000000E+00  1.000000E+01
 1.800000E+04  0.000000E+00  1.000000E+01
 2.000000E+04  0.000000E+00  1.000000E+01
 0.000000E+00  1.000000E+00  1.000000E+01
 2.000000E+03  1.000000E+00  1.000000E+01
 4.000000E+03  1.000000E+00  1.000000E+01
 6.000000E+03  1.000000E+00  1.000000E+01
 8.000000E+03  1.000000E+00  1.000000E+01
 1.000000E+04  1.000000E+00  1.000000E+01
 1.200000E+04  1.000000E+00  1.000000E+01
 1.400000E+04  1.000000E+00  1.000000E+01
 1.600000E+04  1.000000E+00  1.000000E+01
 1.800000E+04  1.000000E+00  1.000000E+01
 2.000000E+04  1.000000E+00  1.000000E+01
 0.000000E+00  0.000000E+00  1.500000E+01
 2.000000E+03  0.000000E+00  1.500000E+01
 4.000000E+03  0.000000E+00  1.500000E+01
 6.000000E+03  0.000000E+00  1.500000E+01
 8.000000E+03  0.000000E+00  1.500000E+01
 1.000000E+04  0.000000E+00  1.500000E+01
 1.200000E+04  0.000000E+00  1.500000E+01
 1.400000E+04  0.000000E+00  1.500000E+01
 1.600000E+04  0.000000E+00  1.500000E+01
 1.800000E+04  0.000000E+00  1.500000E+01
 2.000000E+04  0.000000E+00  1.500000E+01
 0.000000E+00  1.000000E+00  1.500000E+01
 2.000000E+03  1.000000E+00  1.500000E+01
 4.000000E+03  1.000000E+00  1.500000E+01
 6.000000E+03  1.000000E+00  1.500000E+01
 8.000000E+03  1.000000E+00  1.500000E+01
 1.000000E+04  1.000000E+00  1.500000E+01
 1.200000E+04  1.000000E+00  1.500000E+01
 1.400000E+04  1.000000E+00  1.500000E+01
 1.600000E+04  1.000000E+00  1.500000E+01
 1.800000E+04  1.000000E+00  1.500000E+01
 2.000000E+04  1.000000E+00  1.500000E+01
 0.000000E+00  0.000000E+00  2.000000E+01
 2.000000E+03  0.000000E+00  2.000000E+01
 4.000000E+03  0.000000E+00  2.000000E+01
 6.000000E+03  0.000000E+00  2.000000E+01
 8.000000E+03  0.000000E+00  2.000000E+01
 1.000000E+04  0.000000E+00  2.000000E+01
 1.200000E+04  0.000000E+00  2.000000E+01
 1.400000E+04  0.000000E+00  2.000000E+01
 1.600000E+04  0.000000E+00  2.000000E+01
 1.800000E+04  0.000000E+00  2.000000E+01
 2.000000E+04  0.000000E+00  2.000000E+01
 0.000000E+00  1.000000E+00  2.000000E+01
 2.000000E+03  1.000000E+00  2.000000E+01
 4.000000E+03  1.000000E+00  2.000000E+01
 6.000000E+03  1.000000E+00  2.000000E+01
 8.000000E+03  1.000000E+00  2.000000E+01
 1.000000E+04  1.000000E+00  2.000000E+01
 1.200000E+04  1.000000E+00  2.000000E+01
 1.400000E+04  1.000000E+00  2.000000E+01
 1.600000E+04  1.000000E+00  2.000000E+01
 1.800000E+04  1.000000E+00  2.000000E+01
 2.000000E+04  1.000000E+00  2.000000E+01
 0.000000E+00  0.000000E+00  2.500000E+01
 2.000000E+03  0.000000E+00  2.500000E+01
 4.000000E+03  0.000000E+00  2.500000E+01
 6.000000E+03  0.000000E+00  2.500000E+01
 8.000000E+03  0.000000E+00  2.500000E+01
 1.000000E+04  0.000000E+00  2.500000E+01
 1.200000E+04  0.000000E+00  2.500000E+01
 1.400000E+04  0.000000E+00  2.500000E+01
 1.600000E+04  0.000000E+00  2.500000E+01
 1.800000E+04  0.000000E+00  2.500000E+01
 2.000000E+04  0.000000E+00  2.500000E+01
 0.000000E+00  1.000000E+00  2.500000E+01
 2.000000E+03  1.000000E+00  2.500000E+01
 4.000000E+03  1.000000E+00  2.500000E+01
 6.000000E+03  1.000000E+00  2.500000E+01
 8.000000E+03  1.000000E+00  2.500000E+01
 1.000000E+04  1.000000E+00  2.500000E+01
 1.200000E+04  1.000000E+00  2.500000E+01
 1.400000E+04  1.000000E+00  2.500000E+01
 1.600000E+04  1.000000E+00  2.500000E+01
 1.800000E+04  1.000000E+00  2.500000E+01
 2.000000E+04  1.000000E+00  2.500000E+01
 0.000000E+00  0.000000E+00  3.000000E+01
 2.000000E+03  0.000000E+00  3.000000E+01
 4.000000E+03  0.000000E+00  3.000000E+01
 6.000000E+03  0.000000E+00  3.000000E+01
 8.000000E+03  0.000000E+00  3.000000E+01
 1.000000E+04  0.000000E+00  3.000000E+01
 1.200000E+04  0.000000E+00  3.000000E+01
 1.400000E+04  0.000000E+00  3.000000E+01
 1.600000E+04  0.000000E+00  3.000000E+01
 1.800000E+04  0.000000E+00  3.000000E+01
 2.000000E+04  0.000000E+00  3.000000E+01
 0.000000E+00  1.000000E+00  3.000000E+01
 2.000000E+03  1.000000E+00  3.000000E+01
 4.000000E+03  1.000000E+00  3.000000E+01
 6.000000E+03  1.000000E+00  3.000000E+01
 8.000000E+03  1.000000E+00  3.000000E+01
 1.000000E+04  1.000000E+00  3.000000E+01
 1.200000E+04  1.000000E+00  3.000000E+01
 1.400000E+04  1.000000E+00  3.000000E+01
 1.600000E+04  1.000000E+00  3.000000E+01
 1.800000E+04  1.000000E+00  3.000000E+01
 2.000000E+04  1.000000E+00  3.000000E+01
 0.000000E+00  0.000000E+00  3.500000E+01
 2.000000E+03  0.000000E+00  3.500000E+01
 4.000000E+03  0.000000E+00  3.500000E+01
 6.000000E+03  0.000000E+00  3.500000E+01
 8.000000E+03  0.000000E+00  3.500000E+01
 1.000000E+04  0.000000E+00  3.500000E+01
 1.200000E+04  0.000000E+00  3.500000E+01
 1.400000E+04  0.000000E+00  3.500000E+01
 1.600000E+04  0.000000E+00  3.500000E+01
 1.800000E+04  0.000000E+00  3.500000E+01
 2.000000E+04  0.000000E+00  3.500000E+01
 0.000000E+00  1.000000E+00  3.500000E+01
 2.000000E+03  1.000000E+00  3.500000E+01
 4.000000E+03  1.000000E+00  3.500000E+01
 6.000000E+03  1.000000E+00  3.500000E+01
 8.000000E+03  1.000000E+00  3.500000E+01
 1.000000E+04  1.000000E+00  3.500000E+01
 1.200000E+04  1.000000E+00  3.500000E+01
 1.400000E+04  1.000000E+00  3.500000E+01
 1.600000E+04  1.000000E+00  3.500000E+01
 1.800000E+04  1.000000E+00  3.500000E+01
 2.000000E+04  1.000000E+00  3.500000E+01
 0.000000E+00  0.000000E+00  4.000000E+01
 2.000000E+03  0.000000E+00  4.000000E+01
 4.000000E+03  0.000000E+00  4.000000E+01
 6.000000E+03  0.000000E+00  4.000000E+01
 8.000000E+03  0.000000E+00  4.000000E+01
 1.000000E+04  0.000000E+00  4.000000E+01
 1.200000E+04  0.000000E+00  4.000000E+01
 1.400000E+04  0.000000E+00  4.000000E+01
 1.600000E+04  0.000000E+00  4.000000E+01
 1.800000E+04  0.000000E+00  4.000000E+01
 2.000000E+04  0.000000E+00  4.000000E+01
 0.000000E+00  1.000000E+00  4.000000E+01
 2.000000E+03  1.000000E+00  4.000000E+01
 4.000000E+03  1.000000E+00  4.000000E+01
 6.000000E+03  1.000000E+00  4.000000E+01
 8.000000E+03  1.000000E+00  4.000000E+01
 1.000000E+04  1.000000E+00  4.000000E+01
 1.200000E+04  1.000000E+00  4.000000E+01
 1.400000E+04  1.000000E+00  4.000000E+01
 1.600000E+04  1.000000E+00  4.000000E+01
 1.800000E+04  1.000000E+00  4.000000E+01
 2.000000E+04  1.000000E+00  4.000000E+01
 0.000000E+00  0.000000E+00  4.500000E+01
 2.000000E+03  0.000000E+00  4.500000E+01
 4.000000E+03  0.000000E+00  4.500000E+01
 6.000000E+03  0.000000E+00  4.500000E+01
 8.000000E+03  0.000000E+00  4.500000E+01
 1.000000E+04  0.000000E+00  4.500000E+01
 1.200000E+04  0.000000E+00  4.500000E+01
 1.400000E+04  0.000000E+00  4.500000E+01
 1.600000E+04  0.000000E+00  4.500000E+01
 1.800000E+04  0.000000E+00  4.500000E+01
 2.000000E+04  0.000000E+00  4.500000E+01
 0.000000E+00  1.000000E+00  4.500000E+01
 2.000000E+03  1.000000E+00  4.500000E+01
 4.000000E+03  1.000000E+00  4.500000E+01
 6.000000E+03  1.000000E+00  4.500000E+01
 8.000000E+03  1.000000E+00  4.500000E+01
 1.000000E+04  1.000000E+00  4.500000E+01
 1.200000E+04  1.000000E+00  4.500000E+01
 1.400000E+04  1.000000E+00  4.500000E+01
 1.600000E+04  1.000000E+00  4.500000E+01
 1.800000E+04  1.000000E+00  4.500000E+01
 2.000000E+04  1.000000E+00  4.500000E+01
 0.000000E+00  0.000000E+00  5.000000E+01
 2.000000E+03  0.000000E+00  5.000000E+01
 4.000000E+03  0.000000E+00  5.000000E+01
 6.000000E+03  0.000000E+00  5.000000E+01
 8.000000E+03  0.000000E+00  5.000000E+01
 1.000000E+04  0.000000E+00  5.000000E+01
 1.200000E+04  0.000000E+00  5.000000E+01
 1.400000E+04  0.000000E+00  5.000000E+01
 1.600000E+04  0.000000E+00  5.000000E+01
 1.800000E+04  0.000000E+00  5.000000E+01
 2.000000E+04  0.000000E+00  5.000000E+01
 0.000000E+00  1.000000E+00  5.000000E+01
 2.000000E+03  1.000000E+00  5.000000E+01
 4.000000E+03  1.000000E+00  5.000000E+01
 6.000000E+03  1.000000E+00  5.000000E+01
[...]
CELL_DATA      200
SCALARS Vlx                  float 1
LOOKUP_TABLE default
 7.162945E-02  4.145096E-02  1.702258E-02  7.110731E-03  2.999599E-03  1.653357E-03  1.711196E-03  2.498682E-03  3.465689E-03  3.972717E-03
 7.163261E-02  4.145255E-02  1.702309E-02  7.110945E-03  2.999690E-03  1.653407E-03  1.711247E-03  2.498757E-03  3.465793E-03  3.972818E-03
 7.163675E-02  4.145446E-02  1.702361E-02  7.111160E-03  2.999780E-03  1.653457E-03  1.711299E-03  2.498832E-03  3.465898E-03  3.972919E-03
 7.164190E-02  4.145670E-02  1.702412E-02  7.111374E-03  2.999871E-03  1.653507E-03  1.711350E-03  2.498908E-03  3.466002E-03  3.973021E-03
 7.164803E-02  4.145928E-02  1.702463E-02  7.111588E-03  2.999961E-03  1.653556E-03  1.711402E-03  2.498983E-03  3.466107E-03  3.973122E-03
 7.165517E-02  4.146219E-02  1.702514E-02  7.111802E-03  3.000051E-03  1.653606E-03  1.711453E-03  2.499058E-03  3.466211E-03  3.973223E-03
 7.166326E-02  4.146542E-02  1.702566E-02  7.112017E-03  3.000142E-03  1.653656E-03  1.711505E-03  2.499133E-03  3.466315E-03  3.973325E-03
 7.166990E-02  4.146816E-02  1.702617E-02  7.112231E-03  3.000232E-03  1.653706E-03  1.711556E-03  2.499209E-03  3.466420E-03  3.973426E-03
 7.167505E-02  4.147041E-02  1.702668E-02  7.112445E-03  3.000322E-03  1.653755E-03  1.711608E-03  2.499284E-03  3.466524E-03  3.973527E-03
 7.167871E-02  4.147215E-02  1.702720E-02  7.112659E-03  3.000412E-03  1.653805E-03  1.711659E-03  2.499359E-03  3.466629E-03  3.973629E-03
 7.168087E-02  4.147340E-02  1.702771E-02  7.112873E-03  3.000503E-03  1.653855E-03  1.711711E-03  2.499434E-03  3.466733E-03  3.973730E-03
 7.168154E-02  4.147416E-02  1.702822E-02  7.113087E-03  3.000593E-03  1.653905E-03  1.711762E-03  2.499510E-03  3.466837E-03  3.973831E-03
 7.168072E-02  4.147441E-02  1.702873E-02  7.113301E-03  3.000683E-03  1.653954E-03  1.711814E-03  2.499585E-03  3.466942E-03  3.973932E-03
 7.167841E-02  4.147417E-02  1.702925E-02  7.113515E-03  3.000773E-03  1.654004E-03  1.711865E-03  2.499660E-03  3.467046E-03  3.974034E-03
 7.167464E-02  4.147345E-02  1.702976E-02  7.113729E-03  3.000863E-03  1.654054E-03  1.711917E-03  2.499735E-03  3.467150E-03  3.974135E-03
 7.167183E-02  4.147304E-02  1.703027E-02  7.113943E-03  3.000954E-03  1.654103E-03  1.711968E-03  2.499810E-03  3.467255E-03  3.974236E-03
 7.167001E-02  4.147296E-02  1.703079E-02  7.114157E-03  3.001044E-03  1.654153E-03  1.712020E-03  2.499886E-03  3.467359E-03  3.974337E-03
 7.166918E-02  4.147321E-02  1.703130E-02  7.114371E-03  3.001134E-03  1.654203E-03  1.712071E-03  2.499961E-03  3.467463E-03  3.974438E-03
 7.166935E-02  4.147380E-02  1.703181E-02  7.114585E-03  3.001224E-03  1.654253E-03  1.712123E-03  2.500036E-03  3.467568E-03  3.974540E-03
 7.167052E-02  4.147472E-02  1.703232E-02  7.114799E-03  3.001315E-03  1.654302E-03  1.712174E-03  2.500111E-03  3.467672E-03  3.974641E-03


SCALARS Vly                  float 1
LOOKUP_TABLE default
 0.000000E+00  0.000000E+00  0.000000E+00  0.000000E+00  0.000000E+00  0.000000E+00  0.000000E+00  0.000000E+00  0.000000E+00  0.000000E+00
 0.000000E+00  0.000000E+00  0.000000E+00  0.000000E+00  0.000000E+00  0.000000E+00  0.000000E+00  0.000000E+00  0.000000E+00  0.000000E+00
 0.000000E+00  0.000000E+00  0.000000E+00  0.000000E+00  0.000000E+00  0.000000E+00  0.000000E+00  0.000000E+00  0.000000E+00  0.000000E+00
 0.000000E+00  0.000000E+00  0.000000E+00  0.000000E+00  0.000000E+00  0.000000E+00  0.000000E+00  0.000000E+00  0.000000E+00  0.000000E+00
 0.000000E+00  0.000000E+00  0.000000E+00  0.000000E+00  0.000000E+00  0.000000E+00  0.000000E+00  0.000000E+00  0.000000E+00  0.000000E+00
 0.000000E+00  0.000000E+00  0.000000E+00  0.000000E+00  0.000000E+00  0.000000E+00  0.000000E+00  0.000000E+00  0.000000E+00  0.000000E+00
 0.000000E+00  0.000000E+00  0.000000E+00  0.000000E+00  0.000000E+00  0.000000E+00  0.000000E+00  0.000000E+00  0.000000E+00  0.000000E+00
 0.000000E+00  0.000000E+00  0.000000E+00  0.000000E+00  0.000000E+00  0.000000E+00  0.000000E+00  0.000000E+00  0.000000E+00  0.000000E+00
 0.000000E+00  0.000000E+00  0.000000E+00  0.000000E+00  0.000000E+00  0.000000E+00  0.000000E+00  0.000000E+00  0.000000E+00  0.000000E+00
 0.000000E+00  0.000000E+00  0.000000E+00  0.000000E+00  0.000000E+00  0.000000E+00  0.000000E+00  0.000000E+00  0.000000E+00  0.000000E+00
 0.000000E+00  0.000000E+00  0.000000E+00  0.000000E+00  0.000000E+00  0.000000E+00  0.000000E+00  0.000000E+00  0.000000E+00  0.000000E+00
 0.000000E+00  0.000000E+00  0.000000E+00  0.000000E+00  0.000000E+00  0.000000E+00  0.000000E+00  0.000000E+00  0.000000E+00  0.000000E+00
 0.000000E+00  0.000000E+00  0.000000E+00  0.000000E+00  0.000000E+00  0.000000E+00  0.000000E+00  0.000000E+00  0.000000E+00  0.000000E+00
 0.000000E+00  0.000000E+00  0.000000E+00  0.000000E+00  0.000000E+00  0.000000E+00  0.000000E+00  0.000000E+00  0.000000E+00  0.000000E+00
 0.000000E+00  0.000000E+00  0.000000E+00  0.000000E+00  0.000000E+00  0.000000E+00  0.000000E+00  0.000000E+00  0.000000E+00  0.000000E+00
 0.000000E+00  0.000000E+00  0.000000E+00  0.000000E+00  0.000000E+00  0.000000E+00  0.000000E+00  0.000000E+00  0.000000E+00  0.000000E+00
 0.000000E+00  0.000000E+00  0.000000E+00  0.000000E+00  0.000000E+00  0.000000E+00  0.000000E+00  0.000000E+00  0.000000E+00  0.000000E+00
 0.000000E+00  0.000000E+00  0.000000E+00  0.000000E+00  0.000000E+00  0.000000E+00  0.000000E+00  0.000000E+00  0.000000E+00  0.000000E+00
 0.000000E+00  0.000000E+00  0.000000E+00  0.000000E+00  0.000000E+00  0.000000E+00  0.000000E+00  0.000000E+00  0.000000E+00  0.000000E+00
 0.000000E+00  0.000000E+00  0.000000E+00  0.000000E+00  0.000000E+00  0.000000E+00  0.000000E+00  0.000000E+00  0.000000E+00  0.000000E+00


SCALARS Vlz                  float 1
LOOKUP_TABLE default
-3.976566E-04  2.846810E-08  3.336857E-08  1.761353E-08  7.122329E-09  8.064923E-10 -3.179875E-09 -5.512573E-09 -5.418674E-09 -3.111593E-09
-5.965030E-04  4.081949E-08  4.830139E-08  2.549761E-08  1.030960E-08  1.166415E-09 -4.604511E-09 -7.981042E-09 -7.844954E-09 -4.505831E-09
-9.942164E-04  6.446893E-08  7.641830E-08  4.033945E-08  1.631092E-08  1.844209E-09 -7.285432E-09 -1.262852E-08 -1.241237E-08 -7.130453E-09
-1.391974E-03  8.683793E-08  1.010347E-07  5.333181E-08  2.156556E-08  2.436934E-09 -9.630897E-09 -1.669759E-08 -1.641062E-08 -9.427509E-09
-1.789779E-03  1.095798E-07  1.221479E-07  6.447644E-08  2.607338E-08  2.946575E-09 -1.164282E-08 -2.018695E-08 -1.984044E-08 -1.139779E-08
-2.187639E-03  1.343486E-07  1.397544E-07  7.377123E-08  2.983204E-08  3.372181E-09 -1.332091E-08 -2.309681E-08 -2.270260E-08 -1.304010E-08
-2.088176E-03  1.627759E-07  1.538525E-07  8.121393E-08  3.284059E-08  3.712777E-09 -1.466478E-08 -2.542788E-08 -2.499386E-08 -1.435461E-08
-1.491374E-03  1.944499E-07  1.644411E-07  8.680215E-08  3.510062E-08  3.968975E-09 -1.567384E-08 -2.717866E-08 -2.671376E-08 -1.534218E-08
-8.945911E-04  2.269073E-07  1.715165E-07  9.053514E-08  3.661095E-08  4.139255E-09 -1.634780E-08 -2.834851E-08 -2.786265E-08 -1.600118E-08
-2.978192E-04  2.576558E-07  1.750774E-07  9.241339E-08  3.736887E-08  4.225344E-09 -1.668718E-08 -2.893629E-08 -2.844012E-08 -1.633187E-08
 2.989480E-04  2.842055E-07  1.751190E-07  9.243351E-08  3.737526E-08  4.227056E-09 -1.669204E-08 -2.894243E-08 -2.844637E-08 -1.633335E-08
 8.957177E-04  3.040653E-07  1.716403E-07  9.059492E-08  3.663226E-08  4.142888E-09 -1.636178E-08 -2.836610E-08 -2.787958E-08 -1.600510E-08
 1.492499E-03  3.147476E-07  1.646389E-07  8.689847E-08  3.513735E-08  3.973255E-09 -1.569459E-08 -2.720857E-08 -2.674211E-08 -1.534938E-08
 2.089298E-03  3.137637E-07  1.541102E-07  8.134100E-08  3.288997E-08  3.718193E-09 -1.469189E-08 -2.546955E-08 -2.503421E-08 -1.436801E-08
 2.188745E-03  2.986483E-07  1.400532E-07  7.392042E-08  2.989203E-08  3.379035E-09 -1.335463E-08 -2.314655E-08 -2.275259E-08 -1.305755E-08
 1.790824E-03  2.689795E-07  1.224651E-07  6.463629E-08  2.614066E-08  2.956127E-09 -1.167876E-08 -2.023881E-08 -1.989504E-08 -1.141660E-08
 1.392894E-03  2.263799E-07  1.013438E-07  5.348806E-08  2.163196E-08  2.446797E-09 -9.663872E-09 -1.674790E-08 -1.646298E-08 -9.447929E-09
 9.949499E-04  1.725017E-07  7.668626E-08  4.047386E-08  1.636801E-08  1.851706E-09 -7.311645E-09 -1.267329E-08 -1.245843E-08 -7.150768E-09
 5.969870E-04  1.090000E-07  4.849013E-08  2.559365E-08  1.035081E-08  1.171969E-09 -4.621733E-09 -8.012871E-09 -7.877218E-09 -4.522141E-09
 3.980001E-04  7.505081E-08  3.350728E-08  1.768714E-08  7.153659E-09  8.108196E-10 -3.192444E-09 -5.536590E-09 -5.441252E-09 -3.124459E-09


SCALARS Vgx                  float 1
LOOKUP_TABLE default
 0.000000E+00  0.000000E+00  0.000000E+00  0.000000E+00  0.000000E+00  0.000000E+00  0.000000E+00  0.000000E+00  0.000000E+00  0.000000E+00
 0.000000E+00  0.000000E+00  0.000000E+00  0.000000E+00  0.000000E+00  0.000000E+00  0.000000E+00  0.000000E+00  0.000000E+00  0.000000E+00
 0.000000E+00  0.000000E+00  0.000000E+00  0.000000E+00  0.000000E+00  0.000000E+00  0.000000E+00  0.000000E+00  0.000000E+00  0.000000E+00
 0.000000E+00  0.000000E+00  0.000000E+00  0.000000E+00  0.000000E+00  0.000000E+00  0.000000E+00  0.000000E+00  0.000000E+00  0.000000E+00
 0.000000E+00  0.000000E+00  0.000000E+00  0.000000E+00  0.000000E+00  0.000000E+00  0.000000E+00  0.000000E+00  0.000000E+00  0.000000E+00
 0.000000E+00  0.000000E+00  0.000000E+00  0.000000E+00  0.000000E+00  0.000000E+00  0.000000E+00  0.000000E+00  0.000000E+00  0.000000E+00
 0.000000E+00  0.000000E+00  0.000000E+00  0.000000E+00  0.000000E+00  0.000000E+00  0.000000E+00  0.000000E+00  0.000000E+00  0.000000E+00
 0.000000E+00  0.000000E+00  0.000000E+00  0.000000E+00  0.000000E+00  0.000000E+00  0.000000E+00  0.000000E+00  0.000000E+00  0.000000E+00
 0.000000E+00  0.000000E+00  0.000000E+00  0.000000E+00  0.000000E+00  0.000000E+00  0.000000E+00  0.000000E+00  0.000000E+00  0.000000E+00
 0.000000E+00  0.000000E+00  0.000000E+00  0.000000E+00  0.000000E+00  0.000000E+00  0.000000E+00  0.000000E+00  0.000000E+00  0.000000E+00
 0.000000E+00  0.000000E+00  0.000000E+00  0.000000E+00  0.000000E+00  0.000000E+00  0.000000E+00  0.000000E+00  0.000000E+00  0.000000E+00
 0.000000E+00  0.000000E+00  0.000000E+00  0.000000E+00  0.000000E+00  0.000000E+00  0.000000E+00  0.000000E+00  0.000000E+00  0.000000E+00
 0.000000E+00  0.000000E+00  0.000000E+00  0.000000E+00  0.000000E+00  0.000000E+00  0.000000E+00  0.000000E+00  0.000000E+00  0.000000E+00
 0.000000E+00  0.000000E+00  0.000000E+00  0.000000E+00  0.000000E+00  0.000000E+00  0.000000E+00  0.000000E+00  0.000000E+00  0.000000E+00
 0.000000E+00  0.000000E+00  0.000000E+00  0.000000E+00  0.000000E+00  0.000000E+00  0.000000E+00  0.000000E+00  0.000000E+00  0.000000E+00
 0.000000E+00  0.000000E+00  0.000000E+00  0.000000E+00  0.000000E+00  0.000000E+00  0.000000E+00  0.000000E+00  0.000000E+00  0.000000E+00
 0.000000E+00  0.000000E+00  0.000000E+00  0.000000E+00  0.000000E+00  0.000000E+00  0.000000E+00  0.000000E+00  0.000000E+00  0.000000E+00
 0.000000E+00  0.000000E+00  0.000000E+00  0.000000E+00  0.000000E+00  0.000000E+00  0.000000E+00  0.000000E+00  0.000000E+00  0.000000E+00
 0.000000E+00  0.000000E+00  0.000000E+00  0.000000E+00  0.000000E+00  0.000000E+00  0.000000E+00  0.000000E+00  0.000000E+00  0.000000E+00
 0.000000E+00  0.000000E+00  0.000000E+00  0.000000E+00  0.000000E+00  0.000000E+00  0.000000E+00  0.000000E+00  0.000000E+00  0.000000E+00


SCALARS Vgy                  float 1
LOOKUP_TABLE default
 0.000000E+00  0.000000E+00  0.000000E+00  0.000000E+00  0.000000E+00  0.000000E+00  0.000000E+00  0.000000E+00  0.000000E+00  0.000000E+00
 0.000000E+00  0.000000E+00  0.000000E+00  0.000000E+00  0.000000E+00  0.000000E+00  0.000000E+00  0.000000E+00  0.000000E+00  0.000000E+00
 0.000000E+00  0.000000E+00  0.000000E+00  0.000000E+00  0.000000E+00  0.000000E+00  0.000000E+00  0.000000E+00  0.000000E+00  0.000000E+00
 0.000000E+00  0.000000E+00  0.000000E+00  0.000000E+00  0.000000E+00  0.000000E+00  0.000000E+00  0.000000E+00  0.000000E+00  0.000000E+00
 0.000000E+00  0.000000E+00  0.000000E+00  0.000000E+00  0.000000E+00  0.000000E+00  0.000000E+00  0.000000E+00  0.000000E+00  0.000000E+00
 0.000000E+00  0.000000E+00  0.000000E+00  0.000000E+00  0.000000E+00  0.000000E+00  0.000000E+00  0.000000E+00  0.000000E+00  0.000000E+00
 0.000000E+00  0.000000E+00  0.000000E+00  0.000000E+00  0.000000E+00  0.000000E+00  0.000000E+00  0.000000E+00  0.000000E+00  0.000000E+00
 0.000000E+00  0.000000E+00  0.000000E+00  0.000000E+00  0.000000E+00  0.000000E+00  0.000000E+00  0.000000E+00  0.000000E+00  0.000000E+00
 0.000000E+00  0.000000E+00  0.000000E+00  0.000000E+00  0.000000E+00  0.000000E+00  0.000000E+00  0.000000E+00  0.000000E+00  0.000000E+00
 0.000000E+00  0.000000E+00  0.000000E+00  0.000000E+00  0.000000E+00  0.000000E+00  0.000000E+00  0.000000E+00  0.000000E+00  0.000000E+00
 0.000000E+00  0.000000E+00  0.000000E+00  0.000000E+00  0.000000E+00  0.000000E+00  0.000000E+00  0.000000E+00  0.000000E+00  0.000000E+00
 0.000000E+00  0.000000E+00  0.000000E+00  0.000000E+00  0.000000E+00  0.000000E+00  0.000000E+00  0.000000E+00  0.000000E+00  0.000000E+00
 0.000000E+00  0.000000E+00  0.000000E+00  0.000000E+00  0.000000E+00  0.000000E+00  0.000000E+00  0.000000E+00  0.000000E+00  0.000000E+00
 0.000000E+00  0.000000E+00  0.000000E+00  0.000000E+00  0.000000E+00  0.000000E+00  0.000000E+00  0.000000E+00  0.000000E+00  0.000000E+00
 0.000000E+00  0.000000E+00  0.000000E+00  0.000000E+00  0.000000E+00  0.000000E+00  0.000000E+00  0.000000E+00  0.000000E+00  0.000000E+00
 0.000000E+00  0.000000E+00  0.000000E+00  0.000000E+00  0.000000E+00  0.000000E+00  0.000000E+00  0.000000E+00  0.000000E+00  0.000000E+00
 0.000000E+00  0.000000E+00  0.000000E+00  0.000000E+00  0.000000E+00  0.000000E+00  0.000000E+00  0.000000E+00  0.000000E+00  0.000000E+00
 0.000000E+00  0.000000E+00  0.000000E+00  0.000000E+00  0.000000E+00  0.000000E+00  0.000000E+00  0.000000E+00  0.000000E+00  0.000000E+00
 0.000000E+00  0.000000E+00  0.000000E+00  0.000000E+00  0.000000E+00  0.000000E+00  0.000000E+00  0.000000E+00  0.000000E+00  0.000000E+00
 0.000000E+00  0.000000E+00  0.000000E+00  0.000000E+00  0.000000E+00  0.000000E+00  0.000000E+00  0.000000E+00  0.000000E+00  0.000000E+00


SCALARS Vgz                  float 1
LOOKUP_TABLE default
 0.000000E+00  0.000000E+00  0.000000E+00  0.000000E+00  0.000000E+00  0.000000E+00  0.000000E+00  0.000000E+00  0.000000E+00  0.000000E+00
 0.000000E+00  0.000000E+00  0.000000E+00  0.000000E+00  0.000000E+00  0.000000E+00  0.000000E+00  0.000000E+00  0.000000E+00  0.000000E+00
 0.000000E+00  0.000000E+00  0.000000E+00  0.000000E+00  0.000000E+00  0.000000E+00  0.000000E+00  0.000000E+00  0.000000E+00  0.000000E+00
 0.000000E+00  0.000000E+00  0.000000E+00  0.000000E+00  0.000000E+00  0.000000E+00  0.000000E+00  0.000000E+00  0.000000E+00  0.000000E+00
 0.000000E+00  0.000000E+00  0.000000E+00  0.000000E+00  0.000000E+00  0.000000E+00  0.000000E+00  0.000000E+00  0.000000E+00  0.000000E+00
 0.000000E+00  0.000000E+00  0.000000E+00  0.000000E+00  0.000000E+00  0.000000E+00  0.000000E+00  0.000000E+00  0.000000E+00  0.000000E+00
 0.000000E+00  0.000000E+00  0.000000E+00  0.000000E+00  0.000000E+00  0.000000E+00  0.000000E+00  0.000000E+00  0.000000E+00  0.000000E+00
 0.000000E+00  0.000000E+00  0.000000E+00  0.000000E+00  0.000000E+00  0.000000E+00  0.000000E+00  0.000000E+00  0.000000E+00  0.000000E+00
 0.000000E+00  0.000000E+00  0.000000E+00  0.000000E+00  0.000000E+00  0.000000E+00  0.000000E+00  0.000000E+00  0.000000E+00  0.000000E+00
 0.000000E+00  0.000000E+00  0.000000E+00  0.000000E+00  0.000000E+00  0.000000E+00  0.000000E+00  0.000000E+00  0.000000E+00  0.000000E+00
 0.000000E+00  0.000000E+00  0.000000E+00  0.000000E+00  0.000000E+00  0.000000E+00  0.000000E+00  0.000000E+00  0.000000E+00  0.000000E+00
 0.000000E+00  0.000000E+00  0.000000E+00  0.000000E+00  0.000000E+00  0.000000E+00  0.000000E+00  0.000000E+00  0.000000E+00  0.000000E+00
 0.000000E+00  0.000000E+00  0.000000E+00  0.000000E+00  0.000000E+00  0.000000E+00  0.000000E+00  0.000000E+00  0.000000E+00  0.000000E+00
 0.000000E+00  0.000000E+00  0.000000E+00  0.000000E+00  0.000000E+00  0.000000E+00  0.000000E+00  0.000000E+00  0.000000E+00  0.000000E+00
 0.000000E+00  0.000000E+00  0.000000E+00  0.000000E+00  0.000000E+00  0.000000E+00  0.000000E+00  0.000000E+00  0.000000E+00  0.000000E+00
 0.000000E+00  0.000000E+00  0.000000E+00  0.000000E+00  0.000000E+00  0.000000E+00  0.000000E+00  0.000000E+00  0.000000E+00  0.000000E+00
 0.000000E+00  0.000000E+00  0.000000E+00  0.000000E+00  0.000000E+00  0.000000E+00  0.000000E+00  0.000000E+00  0.000000E+00  0.000000E+00
 0.000000E+00  0.000000E+00  0.000000E+00  0.000000E+00  0.000000E+00  0.000000E+00  0.000000E+00  0.000000E+00  0.000000E+00  0.000000E+00
 0.000000E+00  0.000000E+00  0.000000E+00  0.000000E+00  0.000000E+00  0.000000E+00  0.000000E+00  0.000000E+00  0.000000E+00  0.000000E+00
 0.000000E+00  0.000000E+00  0.000000E+00  0.000000E+00  0.000000E+00  0.000000E+00  0.000000E+00  0.000000E+00  0.000000E+00  0.000000E+00


SCALARS Material_ID          int 1
LOOKUP_TABLE default
  1
  1
  1
  1
  1
  1
  1
  1
  1
  1
  1
  1
  1
  1
  1
  1
  1
  1
  1
  1
  1
  1
  1
  1
  1
  1
  1
  1
  1
  1
  1
  1
  1
  1
  1
  1
  1
  1
  1
  1
  1
  1
  1
  1
  1
  1
  1
  1
  1
  1
  1
  1
  1
  1
  1
  1
  1
  1
  1
  1
  1
  1
  1
  1
  1
  1
  1
  1
  1
  1
  1
  1
  1
  1
  1
  1
  1
  1
  1
  1
  1
  1
  1
  1
  1
  1
  1
  1
  1
  1
  1
  1
  1
  1
  1
  1
  1
  1
  1
  1
  1
  1
  1
  1
  1
  1
  1
  1
  1
  1
  1
  1
  1
  1
  1
  1
  1
  1
  1
  1
  1
  1
  1
  1
  1
  1
  1
  1
  1
  1
  1
  1
  1
  1
  1
  1
  1
  1
  1
  1
  1
  1
  1
  1
  1
  1
  1
  1
  1
  1
  1
  1
  1
  1
  1
  1
  1
  1
  1
  1
  1
  1
  1
  1
  1
  1
  1
  1
  1
  1
  1
  1
  1
  1
  1
  1
  1
  1
  1
  1
  1
  1
  1
  1
  1
  1
  1
  1
  1
  1
  1
  1
  1
  1
  1
  1
  1
  1
  1
  1


