# vtk DataFile Version 2.0
PFLOTRAN output
ASCII
DATASET UNSTRUCTURED_GRID
POINTS          462 float
 0.000000E+00  0.000000E+00  0.000000E+00
 2.000000E+03  0.000000E+00  0.000000E+00
 4.000000E+03  0.000000E+00  0.000000E+00
 6.000000E+03  0.000000E+00  0.000000E+00
 8.000000E+03  0.000000E+00  0.000000E+00
 1.000000E+04  0.000000E+00  0.000000E+00
 1.200000E+04  0.000000E+00  0.000000E+00
 1.400000E+04  0.000000E+00  0.000000E+00
 1.600000E+04  0.000000E+00  0.000000E+00
 1.800000E+04  0.000000E+00  0.000000E+00
 2.000000E+04  0.000000E+00  0.000000E+00
 0.000000E+00  1.000000E+00  0.000000E+00
 2.000000E+03  1.000000E+00  0.000000E+00
 4.000000E+03  1.000000E+00  0.000000E+00
 6.000000E+03  1.000000E+00  0.000000E+00
 8.000000E+03  1.000000E+00  0.000000E+00
 1.000000E+04  1.000000E+00  0.000000E+00
 1.200000E+04  1.000000E+00  0.000000E+00
 1.400000E+04  1.000000E+00  0.000000E+00
 1.600000E+04  1.000000E+00  0.000000E+00
 1.800000E+04  1.000000E+00  0.000000E+00
 2.000000E+04  1.000000E+00  0.000000E+00
 0.000000E+00  0.000000E+00  5.000000E+00
 2.000000E+03  0.000000E+00  5.000000E+00
 4.000000E+03  0.000000E+00  5.000000E+00
 6.000000E+03  0.000000E+00  5.000000E+00
 8.000000E+03  0.000000E+00  5.000000E+00
 1.000000E+04  0.000000E+00  5.000000E+00
 1.200000E+04  0.000000E+00  5.000000E+00
 1.400000E+04  0.000000E+00  5.000000E+00
 1.600000E+04  0.000000E+00  5.000000E+00
 1.800000E+04  0.000000E+00  5.000000E+00
 2.000000E+04  0.000000E+00  5.000000E+00
 0.000000E+00  1.000000E+00  5.000000E+00
 2.000000E+03  1.000000E+00  5.000000E+00
 4.000000E+03  1.000000E+00  5.000000E+00
 6.000000E+03  1.000000E+00  5.000000E+00
 8.000000E+03  1.000000E+00  5.000000E+00
 1.000000E+04  1.000000E+00  5.000000E+00
 1.200000E+04  1.000000E+00  5.000000E+00
 1.400000E+04  1.000000E+00  5.000000E+00
 1.600000E+04  1.000000E+00  5.000000E+00
 1.800000E+04  1.000000E+00  5.000000E+00
 2.000000E+04  1.000000E+00  5.000000E+00
 0.000000E+00  0.000000E+00  1.000000E+01
 2.000000E+03  0.000000E+00  1.000000E+01
 4.000000E+03  0.000000E+00  1.000000E+01
 6.000000E+03  0.000000E+00  1.000000E+01
 8.000000E+03  0.000000E+00  1.000000E+01
 1.000000E+04  0.000000E+00  1.000000E+01
 1.200000E+04  0.000000E+00  1.000000E+01
 1.400000E+04  0.000000E+00  1.000000E+01
 1.600000E+04  0.000000E+00  1.000000E+01
 1.800000E+04  0.000000E+00  1.000000E+01
 2.000000E+04  0.000000E+00  1.000000E+01
 0.000000E+00  1.000000E+00  1.000000E+01
 2.000000E+03  1.000000E+00  1.000000E+01
 4.000000E+03  1.000000E+00  1.000000E+01
 6.000000E+03  1.000000E+00  1.000000E+01
 8.000000E+03  1.000000E+00  1.000000E+01
 1.000000E+04  1.000000E+00  1.000000E+01
 1.200000E+04  1.000000E+00  1.000000E+01
 1.400000E+04  1.000000E+00  1.000000E+01
 1.600000E+04  1.000000E+00  1.000000E+01
 1.800000E+04  1.000000E+00  1.000000E+01
 2.000000E+04  1.000000E+00  1.000000E+01
 0.000000E+00  0.000000E+00  1.500000E+01
 2.000000E+03  0.000000E+00  1.500000E+01
 4.000000E+03  0.000000E+00  1.500000E+01
 6.000000E+03  0.000000E+00  1.500000E+01
 8.000000E+03  0.000000E+00  1.500000E+01
 1.000000E+04  0.000000E+00  1.500000E+01
 1.200000E+04  0.000000E+00  1.500000E+01
 1.400000E+04  0.000000E+00  1.500000E+01
 1.600000E+04  0.000000E+00  1.500000E+01
 1.800000E+04  0.000000E+00  1.500000E+01
 2.000000E+04  0.000000E+00  1.500000E+01
 0.000000E+00  1.000000E+00  1.500000E+01
 2.000000E+03  1.000000E+00  1.500000E+01
 4.000000E+03  1.000000E+00  1.500000E+01
 6.000000E+03  1.000000E+00  1.500000E+01
 8.000000E+03  1.000000E+00  1.500000E+01
 1.000000E+04  1.000000E+00  1.500000E+01
 1.200000E+04  1.000000E+00  1.500000E+01
 1.400000E+04  1.000000E+00  1.500000E+01
 1.600000E+04  1.000000E+00  1.500000E+01
 1.800000E+04  1.000000E+00  1.500000E+01
 2.000000E+04  1.000000E+00  1.500000E+01
 0.000000E+00  0.000000E+00  2.000000E+01
 2.000000E+03  0.000000E+00  2.000000E+01
 4.000000E+03  0.000000E+00  2.000000E+01
 6.000000E+03  0.000000E+00  2.000000E+01
 8.000000E+03  0.000000E+00  2.000000E+01
 1.000000E+04  0.000000E+00  2.000000E+01
 1.200000E+04  0.000000E+00  2.000000E+01
 1.400000E+04  0.000000E+00  2.000000E+01
 1.600000E+04  0.000000E+00  2.000000E+01
 1.800000E+04  0.000000E+00  2.000000E+01
 2.000000E+04  0.000000E+00  2.000000E+01
 0.000000E+00  1.000000E+00  2.000000E+01
 2.000000E+03  1.000000E+00  2.000000E+01
 4.000000E+03  1.000000E+00  2.000000E+01
 6.000000E+03  1.000000E+00  2.000000E+01
 8.000000E+03  1.000000E+00  2.000000E+01
 1.000000E+04  1.000000E+00  2.000000E+01
 1.200000E+04  1.000000E+00  2.000000E+01
 1.400000E+04  1.000000E+00  2.000000E+01
 1.600000E+04  1.000000E+00  2.000000E+01
 1.800000E+04  1.000000E+00  2.000000E+01
 2.000000E+04  1.000000E+00  2.000000E+01
 0.000000E+00  0.000000E+00  2.500000E+01
 2.000000E+03  0.000000E+00  2.500000E+01
 4.000000E+03  0.000000E+00  2.500000E+01
 6.000000E+03  0.000000E+00  2.500000E+01
 8.000000E+03  0.000000E+00  2.500000E+01
 1.000000E+04  0.000000E+00  2.500000E+01
 1.200000E+04  0.000000E+00  2.500000E+01
 1.400000E+04  0.000000E+00  2.500000E+01
 1.600000E+04  0.000000E+00  2.500000E+01
 1.800000E+04  0.000000E+00  2.500000E+01
 2.000000E+04  0.000000E+00  2.500000E+01
 0.000000E+00  1.000000E+00  2.500000E+01
 2.000000E+03  1.000000E+00  2.500000E+01
 4.000000E+03  1.000000E+00  2.500000E+01
 6.000000E+03  1.000000E+00  2.500000E+01
 8.000000E+03  1.000000E+00  2.500000E+01
 1.000000E+04  1.000000E+00  2.500000E+01
 1.200000E+04  1.000000E+00  2.500000E+01
 1.400000E+04  1.000000E+00  2.500000E+01
 1.600000E+04  1.000000E+00  2.500000E+01
 1.800000E+04  1.000000E+00  2.500000E+01
 2.000000E+04  1.000000E+00  2.500000E+01
 0.000000E+00  0.000000E+00  3.000000E+01
 2.000000E+03  0.000000E+00  3.000000E+01
 4.000000E+03  0.000000E+00  3.000000E+01
 6.000000E+03  0.000000E+00  3.000000E+01
 8.000000E+03  0.000000E+00  3.000000E+01
 1.000000E+04  0.000000E+00  3.000000E+01
 1.200000E+04  0.000000E+00  3.000000E+01
 1.400000E+04  0.000000E+00  3.000000E+01
 1.600000E+04  0.000000E+00  3.000000E+01
 1.800000E+04  0.000000E+00  3.000000E+01
 2.000000E+04  0.000000E+00  3.000000E+01
 0.000000E+00  1.000000E+00  3.000000E+01
 2.000000E+03  1.000000E+00  3.000000E+01
 4.000000E+03  1.000000E+00  3.000000E+01
 6.000000E+03  1.000000E+00  3.000000E+01
 8.000000E+03  1.000000E+00  3.000000E+01
 1.000000E+04  1.000000E+00  3.000000E+01
 1.200000E+04  1.000000E+00  3.000000E+01
 1.400000E+04  1.000000E+00  3.000000E+01
 1.600000E+04  1.000000E+00  3.000000E+01
 1.800000E+04  1.000000E+00  3.000000E+01
 2.000000E+04  1.000000E+00  3.000000E+01
 0.000000E+00  0.000000E+00  3.500000E+01
 2.000000E+03  0.000000E+00  3.500000E+01
 4.000000E+03  0.000000E+00  3.500000E+01
 6.000000E+03  0.000000E+00  3.500000E+01
 8.000000E+03  0.000000E+00  3.500000E+01
 1.000000E+04  0.000000E+00  3.500000E+01
 1.200000E+04  0.000000E+00  3.500000E+01
 1.400000E+04  0.000000E+00  3.500000E+01
 1.600000E+04  0.000000E+00  3.500000E+01
 1.800000E+04  0.000000E+00  3.500000E+01
 2.000000E+04  0.000000E+00  3.500000E+01
 0.000000E+00  1.000000E+00  3.500000E+01
 2.000000E+03  1.000000E+00  3.500000E+01
 4.000000E+03  1.000000E+00  3.500000E+01
 6.000000E+03  1.000000E+00  3.500000E+01
 8.000000E+03  1.000000E+00  3.500000E+01
 1.000000E+04  1.000000E+00  3.500000E+01
 1.200000E+04  1.000000E+00  3.500000E+01
 1.400000E+04  1.000000E+00  3.500000E+01
 1.600000E+04  1.000000E+00  3.500000E+01
 1.800000E+04  1.000000E+00  3.500000E+01
 2.000000E+04  1.000000E+00  3.500000E+01
 0.000000E+00  0.000000E+00  4.000000E+01
 2.000000E+03  0.000000E+00  4.000000E+01
 4.000000E+03  0.000000E+00  4.000000E+01
 6.000000E+03  0.000000E+00  4.000000E+01
 8.000000E+03  0.000000E+00  4.000000E+01
 1.000000E+04  0.000000E+00  4.000000E+01
 1.200000E+04  0.000000E+00  4.000000E+01
 1.400000E+04  0.000000E+00  4.000000E+01
 1.600000E+04  0.000000E+00  4.000000E+01
 1.800000E+04  0.000000E+00  4.000000E+01
 2.000000E+04  0.000000E+00  4.000000E+01
 0.000000E+00  1.000000E+00  4.000000E+01
 2.000000E+03  1.000000E+00  4.000000E+01
 4.000000E+03  1.000000E+00  4.000000E+01
 6.000000E+03  1.000000E+00  4.000000E+01
 8.000000E+03  1.000000E+00  4.000000E+01
 1.000000E+04  1.000000E+00  4.000000E+01
 1.200000E+04  1.000000E+00  4.000000E+01
 1.400000E+04  1.000000E+00  4.000000E+01
 1.600000E+04  1.000000E+00  4.000000E+01
 1.800000E+04  1.000000E+00  4.000000E+01
 2.000000E+04  1.000000E+00  4.000000E+01
 0.000000E+00  0.000000E+00  4.500000E+01
 2.000000E+03  0.000000E+00  4.500000E+01
 4.000000E+03  0.000000E+00  4.500000E+01
 6.000000E+03  0.000000E+00  4.500000E+01
 8.000000E+03  0.000000E+00  4.500000E+01
 1.000000E+04  0.000000E+00  4.500000E+01
 1.200000E+04  0.000000E+00  4.500000E+01
 1.400000E+04  0.000000E+00  4.500000E+01
 1.600000E+04  0.000000E+00  4.500000E+01
 1.800000E+04  0.000000E+00  4.500000E+01
 2.000000E+04  0.000000E+00  4.500000E+01
 0.000000E+00  1.000000E+00  4.500000E+01
 2.000000E+03  1.000000E+00  4.500000E+01
 4.000000E+03  1.000000E+00  4.500000E+01
 6.000000E+03  1.000000E+00  4.500000E+01
 8.000000E+03  1.000000E+00  4.500000E+01
 1.000000E+04  1.000000E+00  4.500000E+01
 1.200000E+04  1.000000E+00  4.500000E+01
 1.400000E+04  1.000000E+00  4.500000E+01
 1.600000E+04  1.000000E+00  4.500000E+01
 1.800000E+04  1.000000E+00  4.500000E+01
 2.000000E+04  1.000000E+00  4.500000E+01
 0.000000E+00  0.000000E+00  5.000000E+01
 2.000000E+03  0.000000E+00  5.000000E+01
 4.000000E+03  0.000000E+00  5.000000E+01
 6.000000E+03  0.000000E+00  5.000000E+01
 8.000000E+03  0.000000E+00  5.000000E+01
 1.000000E+04  0.000000E+00  5.000000E+01
 1.200000E+04  0.000000E+00  5.000000E+01
 1.400000E+04  0.000000E+00  5.000000E+01
 1.600000E+04  0.000000E+00  5.000000E+01
 1.800000E+04  0.000000E+00  5.000000E+01
 2.000000E+04  0.000000E+00  5.000000E+01
 0.000000E+00  1.000000E+00  5.000000E+01
 2.000000E+03  1.000000E+00  5.000000E+01
 4.000000E+03  1.000000E+00  5.000000E+01
 6.000000E+03  1.000000E+00  5.000000E+01
[...]
CELL_DATA      200
SCALARS Porosity             float 1
LOOKUP_TABLE default
 4.377100E-01  4.377100E-01  4.377100E-01  4.377100E-01  4.377100E-01  4.377100E-01  4.377100E-01  4.377100E-01  4.377100E-01  4.377100E-01
 4.377100E-01  4.377100E-01  4.377100E-01  4.377100E-01  4.377100E-01  4.377100E-01  4.377100E-01  4.377100E-01  4.377100E-01  4.377100E-01
 4.377100E-01  4.377100E-01  4.377100E-01  4.377100E-01  4.377100E-01  4.377100E-01  4.377100E-01  4.377100E-01  4.377100E-01  4.377100E-01
 4.377100E-01  4.377100E-01  4.377100E-01  4.377100E-01  4.377100E-01  4.377100E-01  4.377100E-01  4.377100E-01  4.377100E-01  4.377100E-01
 4.377100E-01  4.377100E-01  4.377100E-01  4.377100E-01  4.377100E-01  4.377100E-01  4.377100E-01  4.377100E-01  4.377100E-01  4.377100E-01
 4.377100E-01  4.377100E-01  4.377100E-01  4.377100E-01  4.377100E-01  4.377100E-01  4.377100E-01  4.377100E-01  4.377100E-01  4.377100E-01
 4.377099E-01  4.377100E-01  4.377100E-01  4.377100E-01  4.377100E-01  4.377100E-01  4.377100E-01  4.377100E-01  4.377100E-01  4.377100E-01
 4.377099E-01  4.377100E-01  4.377100E-01  4.377100E-01  4.377100E-01  4.377100E-01  4.377100E-01  4.377100E-01  4.377100E-01  4.377100E-01
 4.377099E-01  4.377100E-01  4.377100E-01  4.377100E-01  4.377100E-01  4.377100E-01  4.377100E-01  4.377100E-01  4.377100E-01  4.377100E-01
 4.377099E-01  4.377100E-01  4.377100E-01  4.377100E-01  4.377100E-01  4.377100E-01  4.377100E-01  4.377100E-01  4.377100E-01  4.377100E-01
 4.377099E-01  4.377100E-01  4.377100E-01  4.377100E-01  4.377100E-01  4.377100E-01  4.377100E-01  4.377100E-01  4.377100E-01  4.377100E-01
 4.377099E-01  4.377100E-01  4.377100E-01  4.377100E-01  4.377100E-01  4.377100E-01  4.377100E-01  4.377100E-01  4.377100E-01  4.377100E-01
 4.377099E-01  4.377100E-01  4.377100E-01  4.377100E-01  4.377100E-01  4.377100E-01  4.377100E-01  4.377100E-01  4.377100E-01  4.377100E-01
 4.377099E-01  4.377100E-01  4.377100E-01  4.377100E-01  4.377100E-01  4.377100E-01  4.377100E-01  4.377100E-01  4.377100E-01  4.377100E-01
 4.377100E-01  4.377100E-01  4.377100E-01  4.377100E-01  4.377100E-01  4.377100E-01  4.377100E-01  4.377100E-01  4.377100E-01  4.377100E-01
 4.377100E-01  4.377100E-01  4.377100E-01  4.377100E-01  4.377100E-01  4.377100E-01  4.377100E-01  4.377100E-01  4.377100E-01  4.377100E-01
 4.377100E-01  4.377100E-01  4.377100E-01  4.377100E-01  4.377100E-01  4.377100E-01  4.377100E-01  4.377100E-01  4.377100E-01  4.377100E-01
 4.377100E-01  4.377100E-01  4.377100E-01  4.377100E-01  4.377100E-01  4.377100E-01  4.377100E-01  4.377100E-01  4.377100E-01  4.377100E-01
 4.377100E-01  4.377100E-01  4.377100E-01  4.377100E-01  4.377100E-01  4.377100E-01  4.377100E-01  4.377100E-01  4.377100E-01  4.377100E-01
 4.377100E-01  4.377100E-01  4.377100E-01  4.377100E-01  4.377100E-01  4.377100E-01  4.377100E-01  4.377100E-01  4.377100E-01  4.377100E-01


SCALARS Permeability         float 1
LOOKUP_TABLE default
 8.829805E-13  8.829804E-13  8.829804E-13  8.829804E-13  8.829804E-13  8.829804E-13  8.829803E-13  8.829803E-13  8.829803E-13  8.829803E-13
 8.829805E-13  8.829804E-13  8.829804E-13  8.829804E-13  8.829804E-13  8.829804E-13  8.829804E-13  8.829803E-13  8.829803E-13  8.829803E-13
 8.829805E-13  8.829804E-13  8.829804E-13  8.829804E-13  8.829804E-13  8.829804E-13  8.829804E-13  8.829804E-13  8.829803E-13  8.829803E-13
 8.829805E-13  8.829804E-13  8.829804E-13  8.829804E-13  8.829804E-13  8.829804E-13  8.829804E-13  8.829804E-13  8.829803E-13  8.829803E-13
 8.829805E-13  8.829804E-13  8.829804E-13  8.829804E-13  8.829804E-13  8.829804E-13  8.829804E-13  8.829804E-13  8.829804E-13  8.829804E-13
 8.829805E-13  8.829804E-13  8.829804E-13  8.829804E-13  8.829804E-13  8.829804E-13  8.829804E-13  8.829804E-13  8.829804E-13  8.829804E-13
 8.829799E-13  8.829804E-13  8.829804E-13  8.829804E-13  8.829804E-13  8.829804E-13  8.829804E-13  8.829804E-13  8.829804E-13  8.829804E-13
 8.829799E-13  8.829804E-13  8.829804E-13  8.829804E-13  8.829804E-13  8.829804E-13  8.829804E-13  8.829804E-13  8.829804E-13  8.829804E-13
 8.829799E-13  8.829805E-13  8.829804E-13  8.829804E-13  8.829804E-13  8.829804E-13  8.829804E-13  8.829804E-13  8.829804E-13  8.829804E-13
 8.829799E-13  8.829805E-13  8.829804E-13  8.829804E-13  8.829804E-13  8.829804E-13  8.829804E-13  8.829804E-13  8.829804E-13  8.829804E-13
 8.829799E-13  8.829805E-13  8.829804E-13  8.829804E-13  8.829804E-13  8.829804E-13  8.829804E-13  8.829804E-13  8.829804E-13  8.829804E-13
 8.829799E-13  8.829805E-13  8.829804E-13  8.829804E-13  8.829804E-13  8.829804E-13  8.829804E-13  8.829804E-13  8.829804E-13  8.829804E-13
 8.829799E-13  8.829805E-13  8.829804E-13  8.829804E-13  8.829804E-13  8.829804E-13  8.829804E-13  8.829804E-13  8.829804E-13  8.829804E-13
 8.829799E-13  8.829805E-13  8.829804E-13  8.829804E-13  8.829804E-13  8.829804E-13  8.829804E-13  8.829804E-13  8.829804E-13  8.829804E-13
 8.829805E-13  8.829805E-13  8.829804E-13  8.829804E-13  8.829804E-13  8.829804E-13  8.829804E-13  8.829804E-13  8.829804E-13  8.829804E-13
 8.829805E-13  8.829805E-13  8.829804E-13  8.829804E-13  8.829804E-13  8.829804E-13  8.829804E-13  8.829804E-13  8.829804E-13  8.829804E-13
 8.829806E-13  8.829805E-13  8.829804E-13  8.829804E-13  8.829804E-13  8.829804E-13  8.829804E-13  8.829804E-13  8.829804E-13  8.829804E-13
 8.829806E-13  8.829805E-13  8.829804E-13  8.829804E-13  8.829804E-13  8.829804E-13  8.829804E-13  8.829804E-13  8.829804E-13  8.829804E-13
 8.829806E-13  8.829805E-13  8.829804E-13  8.829804E-13  8.829804E-13  8.829804E-13  8.829804E-13  8.829804E-13  8.829804E-13  8.829804E-13
 8.829806E-13  8.829805E-13  8.829804E-13  8.829804E-13  8.829804E-13  8.829804E-13  8.829804E-13  8.829804E-13  8.829804E-13  8.829804E-13


SCALARS Liquid_Pressure      float 1
LOOKUP_TABLE default
 8.251668E+06  7.885707E+06  7.723430E+06  7.634124E+06  7.581683E+06  7.549333E+06  7.527594E+06  7.510980E+06  7.496637E+06  7.483470E+06
 8.206502E+06  7.840546E+06  7.678273E+06  7.588969E+06  7.536529E+06  7.504180E+06  7.482441E+06  7.465828E+06  7.451486E+06  7.438318E+06
 8.161342E+06  7.795385E+06  7.633117E+06  7.543815E+06  7.491377E+06  7.459028E+06  7.437290E+06  7.420677E+06  7.406336E+06  7.393168E+06
 8.116189E+06  7.750227E+06  7.587962E+06  7.498663E+06  7.446226E+06  7.413878E+06  7.392140E+06  7.375528E+06  7.361187E+06  7.348020E+06
 8.071041E+06  7.705069E+06  7.542809E+06  7.453511E+06  7.401076E+06  7.368729E+06  7.346992E+06  7.330380E+06  7.316039E+06  7.302872E+06
 8.025899E+06  7.659913E+06  7.497657E+06  7.408361E+06  7.355927E+06  7.323581E+06  7.301845E+06  7.285233E+06  7.270892E+06  7.257726E+06
 7.980763E+06  7.614757E+06  7.452506E+06  7.363213E+06  7.310780E+06  7.278434E+06  7.256699E+06  7.240087E+06  7.225747E+06  7.212581E+06
 7.935622E+06  7.569604E+06  7.407356E+06  7.318065E+06  7.265634E+06  7.233289E+06  7.211554E+06  7.194943E+06  7.180603E+06  7.167437E+06
 7.890474E+06  7.524451E+06  7.362207E+06  7.272919E+06  7.220489E+06  7.188145E+06  7.166410E+06  7.149800E+06  7.135460E+06  7.122295E+06
 7.845321E+06  7.479300E+06  7.317060E+06  7.227774E+06  7.175345E+06  7.143002E+06  7.121268E+06  7.104658E+06  7.090319E+06  7.077154E+06
 7.800162E+06  7.434150E+06  7.271914E+06  7.182630E+06  7.130203E+06  7.097861E+06  7.076127E+06  7.059517E+06  7.045178E+06  7.032014E+06
 7.754996E+06  7.389001E+06  7.226769E+06  7.137488E+06  7.085062E+06  7.052720E+06  7.030987E+06  7.014378E+06  7.000039E+06  6.986875E+06
 7.709825E+06  7.343853E+06  7.181626E+06  7.092347E+06  7.039922E+06  7.007581E+06  6.985849E+06  6.969240E+06  6.954902E+06  6.941738E+06
 7.664648E+06  7.298707E+06  7.136484E+06  7.047207E+06  6.994783E+06  6.962444E+06  6.940711E+06  6.924103E+06  6.909765E+06  6.896602E+06
 7.619466E+06  7.253562E+06  7.091343E+06  7.002068E+06  6.949646E+06  6.917307E+06  6.895576E+06  6.878968E+06  6.864630E+06  6.851467E+06
 7.574289E+06  7.208418E+06  7.046203E+06  6.956931E+06  6.904510E+06  6.872172E+06  6.850441E+06  6.833833E+06  6.819496E+06  6.806333E+06
 7.529118E+06  7.163276E+06  7.001065E+06  6.911795E+06  6.859375E+06  6.827038E+06  6.805307E+06  6.788700E+06  6.774364E+06  6.761201E+06
 7.483953E+06  7.118135E+06  6.955928E+06  6.866660E+06  6.814241E+06  6.781905E+06  6.760175E+06  6.743569E+06  6.729232E+06  6.716070E+06
 7.438795E+06  7.072995E+06  6.910792E+06  6.821526E+06  6.769109E+06  6.736774E+06  6.715044E+06  6.698438E+06  6.684102E+06  6.670940E+06
 7.393642E+06  7.027856E+06  6.865657E+06  6.776394E+06  6.723978E+06  6.691643E+06  6.669915E+06  6.653309E+06  6.638973E+06  6.625812E+06


SCALARS Temperature          float 1
LOOKUP_TABLE default
 1.500439E+02  1.500223E+02  1.500127E+02  1.500074E+02  1.500043E+02  1.500024E+02  1.500011E+02  1.500001E+02  1.499993E+02  1.499985E+02
 1.500439E+02  1.500223E+02  1.500127E+02  1.500074E+02  1.500043E+02  1.500024E+02  1.500011E+02  1.500001E+02  1.499993E+02  1.499985E+02
 1.500439E+02  1.500223E+02  1.500127E+02  1.500074E+02  1.500043E+02  1.500024E+02  1.500011E+02  1.500001E+02  1.499993E+02  1.499985E+02
 1.500439E+02  1.500223E+02  1.500127E+02  1.500074E+02  1.500043E+02  1.500024E+02  1.500011E+02  1.500001E+02  1.499993E+02  1.499985E+02
 1.500439E+02  1.500223E+02  1.500127E+02  1.500074E+02  1.500043E+02  1.500024E+02  1.500011E+02  1.500001E+02  1.499993E+02  1.499985E+02
 1.500439E+02  1.500223E+02  1.500127E+02  1.500074E+02  1.500043E+02  1.500024E+02  1.500011E+02  1.500001E+02  1.499993E+02  1.499985E+02
 1.500438E+02  1.500224E+02  1.500127E+02  1.500074E+02  1.500043E+02  1.500024E+02  1.500011E+02  1.500001E+02  1.499993E+02  1.499985E+02
 1.500438E+02  1.500224E+02  1.500127E+02  1.500074E+02  1.500043E+02  1.500024E+02  1.500011E+02  1.500001E+02  1.499993E+02  1.499985E+02
 1.500438E+02  1.500224E+02  1.500127E+02  1.500074E+02  1.500043E+02  1.500024E+02  1.500011E+02  1.500001E+02  1.499993E+02  1.499985E+02
 1.500439E+02  1.500224E+02  1.500127E+02  1.500074E+02  1.500043E+02  1.500024E+02  1.500011E+02  1.500001E+02  1.499993E+02  1.499985E+02
 1.500439E+02  1.500224E+02  1.500127E+02  1.500074E+02  1.500043E+02  1.500024E+02  1.500011E+02  1.500001E+02  1.499993E+02  1.499985E+02
 1.500439E+02  1.500224E+02  1.500127E+02  1.500074E+02  1.500043E+02  1.500024E+02  1.500011E+02  1.500001E+02  1.499993E+02  1.499985E+02
 1.500439E+02  1.500224E+02  1.500127E+02  1.500074E+02  1.500043E+02  1.500024E+02  1.500011E+02  1.500001E+02  1.499993E+02  1.499985E+02
 1.500439E+02  1.500224E+02  1.500127E+02  1.500074E+02  1.500043E+02  1.500024E+02  1.500011E+02  1.500001E+02  1.499993E+02  1.499985E+02
 1.500441E+02  1.500224E+02  1.500127E+02  1.500074E+02  1.500043E+02  1.500024E+02  1.500011E+02  1.500001E+02  1.499993E+02  1.499985E+02
 1.500441E+02  1.500224E+02  1.500127E+02  1.500074E+02  1.500043E+02  1.500024E+02  1.500011E+02  1.500001E+02  1.499993E+02  1.499985E+02
 1.500441E+02  1.500224E+02  1.500127E+02  1.500074E+02  1.500043E+02  1.500024E+02  1.500011E+02  1.500001E+02  1.499993E+02  1.499985E+02
 1.500441E+02  1.500224E+02  1.500127E+02  1.500074E+02  1.500043E+02  1.500024E+02  1.500011E+02  1.500001E+02  1.499993E+02  1.499985E+02
 1.500441E+02  1.500224E+02  1.500127E+02  1.500074E+02  1.500043E+02  1.500024E+02  1.500011E+02  1.500001E+02  1.499993E+02  1.499985E+02
 1.500441E+02  1.500224E+02  1.500127E+02  1.500074E+02  1.500043E+02  1.500024E+02  1.500011E+02  1.500001E+02  1.499993E+02  1.499985E+02


SCALARS pH                   float 1
LOOKUP_TABLE default
 6.144340E+00  6.144308E+00  6.144294E+00  6.144286E+00  6.144281E+00  6.144279E+00  6.144277E+00  6.144275E+00  6.144274E+00  6.144273E+00
 6.144340E+00  6.144308E+00  6.144294E+00  6.144286E+00  6.144281E+00  6.144279E+00  6.144277E+00  6.144275E+00  6.144274E+00  6.144273E+00
 6.144340E+00  6.144308E+00  6.144294E+00  6.144286E+00  6.144281E+00  6.144279E+00  6.144277E+00  6.144275E+00  6.144274E+00  6.144273E+00
 6.144340E+00  6.144308E+00  6.144294E+00  6.144286E+00  6.144281E+00  6.144279E+00  6.144277E+00  6.144275E+00  6.144274E+00  6.144273E+00
 6.144340E+00  6.144308E+00  6.144294E+00  6.144286E+00  6.144282E+00  6.144279E+00  6.144277E+00  6.144275E+00  6.144274E+00  6.144273E+00
 6.144340E+00  6.144308E+00  6.144294E+00  6.144286E+00  6.144282E+00  6.144279E+00  6.144277E+00  6.144275E+00  6.144274E+00  6.144273E+00
 6.144344E+00  6.144308E+00  6.144294E+00  6.144286E+00  6.144282E+00  6.144279E+00  6.144277E+00  6.144275E+00  6.144274E+00  6.144273E+00
 6.144344E+00  6.144308E+00  6.144294E+00  6.144286E+00  6.144282E+00  6.144279E+00  6.144277E+00  6.144275E+00  6.144274E+00  6.144273E+00
 6.144344E+00  6.144308E+00  6.144294E+00  6.144286E+00  6.144282E+00  6.144279E+00  6.144277E+00  6.144275E+00  6.144274E+00  6.144273E+00
 6.144344E+00  6.144308E+00  6.144294E+00  6.144286E+00  6.144282E+00  6.144279E+00  6.144277E+00  6.144275E+00  6.144274E+00  6.144273E+00
 6.144344E+00  6.144308E+00  6.144294E+00  6.144286E+00  6.144282E+00  6.144279E+00  6.144277E+00  6.144275E+00  6.144274E+00  6.144273E+00
 6.144344E+00  6.144308E+00  6.144294E+00  6.144286E+00  6.144282E+00  6.144279E+00  6.144277E+00  6.144275E+00  6.144274E+00  6.144273E+00
 6.144344E+00  6.144308E+00  6.144294E+00  6.144286E+00  6.144282E+00  6.144279E+00  6.144277E+00  6.144275E+00  6.144274E+00  6.144273E+00
 6.144344E+00  6.144308E+00  6.144294E+00  6.144286E+00  6.144282E+00  6.144279E+00  6.144277E+00  6.144275E+00  6.144274E+00  6.144273E+00
 6.144341E+00  6.144308E+00  6.144294E+00  6.144286E+00  6.144282E+00  6.144279E+00  6.144277E+00  6.144275E+00  6.144274E+00  6.144273E+00
 6.144341E+00  6.144308E+00  6.144294E+00  6.144286E+00  6.144282E+00  6.144279E+00  6.144277E+00  6.144275E+00  6.144274E+00  6.144273E+00
 6.144341E+00  6.144308E+00  6.144294E+00  6.144286E+00  6.144282E+00  6.144279E+00  6.144277E+00  6.144275E+00  6.144274E+00  6.144273E+00
 6.144341E+00  6.144308E+00  6.144294E+00  6.144286E+00  6.144282E+00  6.144279E+00  6.144277E+00  6.144275E+00  6.144274E+00  6.144273E+00
 6.144341E+00  6.144308E+00  6.144294E+00  6.144286E+00  6.144282E+00  6.144279E+00  6.144277E+00  6.144275E+00  6.144274E+00  6.144273E+00
 6.144341E+00  6.144308E+00  6.144294E+00  6.144286E+00  6.144282E+00  6.144279E+00  6.144277E+00  6.144275E+00  6.144274E+00  6.144273E+00


SCALARS Total_H+             float 1
LOOKUP_TABLE default
-3.046272E-03 -3.047023E-03 -3.047359E-03 -3.047545E-03 -3.047654E-03 -3.047722E-03 -3.047767E-03 -3.047802E-03 -3.047832E-03 -3.047858E-03
-3.046272E-03 -3.047022E-03 -3.047359E-03 -3.047544E-03 -3.047654E-03 -3.047722E-03 -3.047767E-03 -3.047802E-03 -3.047831E-03 -3.047858E-03
-3.046271E-03 -3.047022E-03 -3.047358E-03 -3.047544E-03 -3.047653E-03 -3.047721E-03 -3.047767E-03 -3.047801E-03 -3.047831E-03 -3.047857E-03
-3.046271E-03 -3.047021E-03 -3.047358E-03 -3.047544E-03 -3.047653E-03 -3.047721E-03 -3.047766E-03 -3.047801E-03 -3.047830E-03 -3.047857E-03
-3.046271E-03 -3.047021E-03 -3.047357E-03 -3.047543E-03 -3.047653E-03 -3.047720E-03 -3.047766E-03 -3.047800E-03 -3.047830E-03 -3.047857E-03
-3.046270E-03 -3.047020E-03 -3.047357E-03 -3.047543E-03 -3.047652E-03 -3.047720E-03 -3.047765E-03 -3.047800E-03 -3.047830E-03 -3.047856E-03
-3.046249E-03 -3.047020E-03 -3.047356E-03 -3.047542E-03 -3.047652E-03 -3.047720E-03 -3.047765E-03 -3.047800E-03 -3.047829E-03 -3.047856E-03
-3.046248E-03 -3.047019E-03 -3.047356E-03 -3.047542E-03 -3.047651E-03 -3.047719E-03 -3.047765E-03 -3.047799E-03 -3.047829E-03 -3.047855E-03
-3.046247E-03 -3.047019E-03 -3.047355E-03 -3.047541E-03 -3.047651E-03 -3.047719E-03 -3.047764E-03 -3.047799E-03 -3.047828E-03 -3.047855E-03
-3.046247E-03 -3.047018E-03 -3.047355E-03 -3.047541E-03 -3.047651E-03 -3.047718E-03 -3.047764E-03 -3.047798E-03 -3.047828E-03 -3.047855E-03
-3.046246E-03 -3.047018E-03 -3.047354E-03 -3.047540E-03 -3.047650E-03 -3.047718E-03 -3.047763E-03 -3.047798E-03 -3.047828E-03 -3.047854E-03
-3.046245E-03 -3.047017E-03 -3.047354E-03 -3.047540E-03 -3.047650E-03 -3.047717E-03 -3.047763E-03 -3.047798E-03 -3.047827E-03 -3.047854E-03
-3.046245E-03 -3.047017E-03 -3.047354E-03 -3.047540E-03 -3.047649E-03 -3.047717E-03 -3.047763E-03 -3.047797E-03 -3.047827E-03 -3.047853E-03
-3.046244E-03 -3.047016E-03 -3.047353E-03 -3.047539E-03 -3.047649E-03 -3.047717E-03 -3.047762E-03 -3.047797E-03 -3.047826E-03 -3.047853E-03
-3.046261E-03 -3.047016E-03 -3.047353E-03 -3.047539E-03 -3.047648E-03 -3.047716E-03 -3.047762E-03 -3.047796E-03 -3.047826E-03 -3.047853E-03
-3.046261E-03 -3.047015E-03 -3.047352E-03 -3.047538E-03 -3.047648E-03 -3.047716E-03 -3.047761E-03 -3.047796E-03 -3.047826E-03 -3.047852E-03
-3.046261E-03 -3.047015E-03 -3.047352E-03 -3.047538E-03 -3.047648E-03 -3.047715E-03 -3.047761E-03 -3.047796E-03 -3.047825E-03 -3.047852E-03
-3.046261E-03 -3.047014E-03 -3.047351E-03 -3.047537E-03 -3.047647E-03 -3.047715E-03 -3.047760E-03 -3.047795E-03 -3.047825E-03 -3.047851E-03
-3.046260E-03 -3.047014E-03 -3.047351E-03 -3.047537E-03 -3.047647E-03 -3.047715E-03 -3.047760E-03 -3.047795E-03 -3.047824E-03 -3.047851E-03
-3.046260E-03 -3.047013E-03 -3.047350E-03 -3.047537E-03 -3.047646E-03 -3.047714E-03 -3.047760E-03 -3.047794E-03 -3.047824E-03 -3.047851E-03


SCALARS Total_SiO2(aq)       float 1
LOOKUP_TABLE default
 1.039581E-02  1.039396E-02  1.039313E-02  1.039268E-02  1.039241E-02  1.039225E-02  1.039214E-02  1.039206E-02  1.039199E-02  1.039192E-02
 1.039581E-02  1.039396E-02  1.039313E-02  1.039268E-02  1.039241E-02  1.039225E-02  1.039214E-02  1.039206E-02  1.039199E-02  1.039192E-02
 1.039581E-02  1.039396E-02  1.039313E-02  1.039268E-02  1.039241E-02  1.039225E-02  1.039214E-02  1.039206E-02  1.039199E-02  1.039192E-02
 1.039581E-02  1.039396E-02  1.039313E-02  1.039268E-02  1.039242E-02  1.039225E-02  1.039214E-02  1.039206E-02  1.039199E-02  1.039192E-02
 1.039581E-02  1.039396E-02  1.039313E-02  1.039268E-02  1.039242E-02  1.039225E-02  1.039214E-02  1.039206E-02  1.039199E-02  1.039192E-02
 1.039581E-02  1.039396E-02  1.039313E-02  1.039268E-02  1.039242E-02  1.039225E-02  1.039214E-02  1.039206E-02  1.039199E-02  1.039192E-02
 1.039603E-02  1.039396E-02  1.039313E-02  1.039268E-02  1.039242E-02  1.039225E-02  1.039214E-02  1.039206E-02  1.039199E-02  1.039192E-02
 1.039603E-02  1.039396E-02  1.039313E-02  1.039268E-02  1.039242E-02  1.039225E-02  1.039214E-02  1.039206E-02  1.039199E-02  1.039192E-02
 1.039604E-02  1.039396E-02  1.039313E-02  1.039268E-02  1.039242E-02  1.039225E-02  1.039214E-02  1.039206E-02  1.039199E-02  1.039192E-02
 1.039604E-02  1.039396E-02  1.039313E-02  1.039268E-02  1.039242E-02  1.039225E-02  1.039214E-02  1.039206E-02  1.039199E-02  1.039192E-02
 1.039604E-02  1.039396E-02  1.039313E-02  1.039268E-02  1.039242E-02  1.039225E-02  1.039214E-02  1.039206E-02  1.039199E-02  1.039192E-02
 1.039604E-02  1.039396E-02  1.039313E-02  1.039268E-02  1.039242E-02  1.039225E-02  1.039214E-02  1.039206E-02  1.039199E-02  1.039192E-02
 1.039604E-02  1.039396E-02  1.039313E-02  1.039268E-02  1.039242E-02  1.039225E-02  1.039214E-02  1.039206E-02  1.039199E-02  1.039192E-02
 1.039604E-02  1.039396E-02  1.039313E-02  1.039268E-02  1.039242E-02  1.039225E-02  1.039214E-02  1.039206E-02  1.039199E-02  1.039192E-02
 1.039583E-02  1.039396E-02  1.039313E-02  1.039268E-02  1.039242E-02  1.039225E-02  1.039214E-02  1.039206E-02  1.039199E-02  1.039192E-02
 1.039583E-02  1.039396E-02  1.039314E-02  1.039268E-02  1.039242E-02  1.039225E-02  1.039214E-02  1.039206E-02  1.039199E-02  1.039192E-02
 1.039583E-02  1.039396E-02  1.039314E-02  1.039268E-02  1.039242E-02  1.039225E-02  1.039214E-02  1.039206E-02  1.039199E-02  1.039192E-02
 1.039582E-02  1.039396E-02  1.039314E-02  1.039268E-02  1.039242E-02  1.039225E-02  1.039214E-02  1.039206E-02  1.039199E-02  1.039192E-02
 1.039582E-02  1.039396E-02  1.039314E-02  1.039268E-02  1.039242E-02  1.039225E-02  1.039214E-02  1.039206E-02  1.039199E-02  1.039192E-02