# vtk DataFile Version 2.0
PFLOTRAN output
ASCII
DATASET UNSTRUCTURED_GRID
POINTS          462 float
 0.000000E+00  0.000000E+00  0.000000E+00
 2.000000E+03  0.000000E+00  0.000000E+00
 4.000000E+03  0.000000E+00  0.000000E+00
 6.000000E+03  0.000000E+00  0.000000E+00
 8.000000E+03  0.000000E+00  0.000000E+00
 1.000000E+04  0.000000E+00  0.000000E+00
 1.200000E+04  0.000000E+00  0.000000E+00
 1.400000E+04  0.000000E+00  0.000000E+00
 1.600000E+04  0.000000E+00  0.000000E+00
 1.800000E+04  0.000000E+00  0.000000E+00
 2.000000E+04  0.000000E+00  0.000000E+00
 0.000000E+00  1.000000E+00  0.000000E+00
 2.000000E+03  1.000000E+00  0.000000E+00
 4.000000E+03  1.000000E+00  0.000000E+00
 6.000000E+03  1.000000E+00  0.000000E+00
 8.000000E+03  1.000000E+00  0.000000E+00
 1.000000E+04  1.000000E+00  0.000000E+00
 1.200000E+04  1.000000E+00  0.000000E+00
 1.400000E+04  1.000000E+00  0.000000E+00
 1.600000E+04  1.000000E+00  0.000000E+00
 1.800000E+04  1.000000E+00  0.000000E+00
 2.000000E+04  1.000000E+00  0.000000E+00
 0.000000E+00  0.000000E+00  5.000000E+00
 2.000000E+03  0.000000E+00  5.000000E+00
 4.000000E+03  0.000000E+00  5.000000E+00
 6.000000E+03  0.000000E+00  5.000000E+00
 8.000000E+03  0.000000E+00  5.000000E+00
 1.000000E+04  0.000000E+00  5.000000E+00
 1.200000E+04  0.000000E+00  5.000000E+00
 1.400000E+04  0.000000E+00  5.000000E+00
 1.600000E+04  0.000000E+00  5.000000E+00
 1.800000E+04  0.000000E+00  5.000000E+00
 2.000000E+04  0.000000E+00  5.000000E+00
 0.000000E+00  1.000000E+00  5.000000E+00
 2.000000E+03  1.000000E+00  5.000000E+00
 4.000000E+03  1.000000E+00  5.000000E+00
 6.000000E+03  1.000000E+00  5.000000E+00
 8.000000E+03  1.000000E+00  5.000000E+00
 1.000000E+04  1.000000E+00  5.000000E+00
 1.200000E+04  1.000000E+00  5.000000E+00
 1.400000E+04  1.000000E+00  5.000000E+00
 1.600000E+04  1.000000E+00  5.000000E+00
 1.800000E+04  1.000000E+00  5.000000E+00
 2.000000E+04  1.000000E+00  5.000000E+00
 0.000000E+00  0.000000E+00  1.000000E+01
 2.000000E+03  0.000000E+00  1.000000E+01
 4.000000E+03  0.000000E+00  1.000000E+01
 6.000000E+03  0.000000E+00  1.000000E+01
 8.000000E+03  0.000000E+00  1.000000E+01
 1.000000E+04  0.000000E+00  1.000000E+01
 1.200000E+04  0.000000E+00  1.000000E+01
 1.400000E+04  0.000000E+00  1.000000E+01
 1.600000E+04  0.000000E+00  1.000000E+01
 1.800000E+04  0.000000E+00  1.000000E+01
 2.000000E+04  0.000000E+00  1.000000E+01
 0.000000E+00  1.000000E+00  1.000000E+01
 2.000000E+03  1.000000E+00  1.000000E+01
 4.000000E+03  1.000000E+00  1.000000E+01
 6.000000E+03  1.000000E+00  1.000000E+01
 8.000000E+03  1.000000E+00  1.000000E+01
 1.000000E+04  1.000000E+00  1.000000E+01
 1.200000E+04  1.000000E+00  1.000000E+01
 1.400000E+04  1.000000E+00  1.000000E+01
 1.600000E+04  1.000000E+00  1.000000E+01
 1.800000E+04  1.000000E+00  1.000000E+01
 2.000000E+04  1.000000E+00  1.000000E+01
 0.000000E+00  0.000000E+00  1.500000E+01
 2.000000E+03  0.000000E+00  1.500000E+01
 4.000000E+03  0.000000E+00  1.500000E+01
 6.000000E+03  0.000000E+00  1.500000E+01
 8.000000E+03  0.000000E+00  1.500000E+01
 1.000000E+04  0.000000E+00  1.500000E+01
 1.200000E+04  0.000000E+00  1.500000E+01
 1.400000E+04  0.000000E+00  1.500000E+01
 1.600000E+04  0.000000E+00  1.500000E+01
 1.800000E+04  0.000000E+00  1.500000E+01
 2.000000E+04  0.000000E+00  1.500000E+01
 0.000000E+00  1.000000E+00  1.500000E+01
 2.000000E+03  1.000000E+00  1.500000E+01
 4.000000E+03  1.000000E+00  1.500000E+01
 6.000000E+03  1.000000E+00  1.500000E+01
 8.000000E+03  1.000000E+00  1.500000E+01
 1.000000E+04  1.000000E+00  1.500000E+01
 1.200000E+04  1.000000E+00  1.500000E+01
 1.400000E+04  1.000000E+00  1.500000E+01
 1.600000E+04  1.000000E+00  1.500000E+01
 1.800000E+04  1.000000E+00  1.500000E+01
 2.000000E+04  1.000000E+00  1.500000E+01
 0.000000E+00  0.000000E+00  2.000000E+01
 2.000000E+03  0.000000E+00  2.000000E+01
 4.000000E+03  0.000000E+00  2.000000E+01
 6.000000E+03  0.000000E+00  2.000000E+01
 8.000000E+03  0.000000E+00  2.000000E+01
 1.000000E+04  0.000000E+00  2.000000E+01
 1.200000E+04  0.000000E+00  2.000000E+01
 1.400000E+04  0.000000E+00  2.000000E+01
 1.600000E+04  0.000000E+00  2.000000E+01
 1.800000E+04  0.000000E+00  2.000000E+01
 2.000000E+04  0.000000E+00  2.000000E+01
 0.000000E+00  1.000000E+00  2.000000E+01
 2.000000E+03  1.000000E+00  2.000000E+01
 4.000000E+03  1.000000E+00  2.000000E+01
 6.000000E+03  1.000000E+00  2.000000E+01
 8.000000E+03  1.000000E+00  2.000000E+01
 1.000000E+04  1.000000E+00  2.000000E+01
 1.200000E+04  1.000000E+00  2.000000E+01
 1.400000E+04  1.000000E+00  2.000000E+01
 1.600000E+04  1.000000E+00  2.000000E+01
 1.800000E+04  1.000000E+00  2.000000E+01
 2.000000E+04  1.000000E+00  2.000000E+01
 0.000000E+00  0.000000E+00  2.500000E+01
 2.000000E+03  0.000000E+00  2.500000E+01
 4.000000E+03  0.000000E+00  2.500000E+01
 6.000000E+03  0.000000E+00  2.500000E+01
 8.000000E+03  0.000000E+00  2.500000E+01
 1.000000E+04  0.000000E+00  2.500000E+01
 1.200000E+04  0.000000E+00  2.500000E+01
 1.400000E+04  0.000000E+00  2.500000E+01
 1.600000E+04  0.000000E+00  2.500000E+01
 1.800000E+04  0.000000E+00  2.500000E+01
 2.000000E+04  0.000000E+00  2.500000E+01
 0.000000E+00  1.000000E+00  2.500000E+01
 2.000000E+03  1.000000E+00  2.500000E+01
 4.000000E+03  1.000000E+00  2.500000E+01
 6.000000E+03  1.000000E+00  2.500000E+01
 8.000000E+03  1.000000E+00  2.500000E+01
 1.000000E+04  1.000000E+00  2.500000E+01
 1.200000E+04  1.000000E+00  2.500000E+01
 1.400000E+04  1.000000E+00  2.500000E+01
 1.600000E+04  1.000000E+00  2.500000E+01
 1.800000E+04  1.000000E+00  2.500000E+01
 2.000000E+04  1.000000E+00  2.500000E+01
 0.000000E+00  0.000000E+00  3.000000E+01
 2.000000E+03  0.000000E+00  3.000000E+01
 4.000000E+03  0.000000E+00  3.000000E+01
 6.000000E+03  0.000000E+00  3.000000E+01
 8.000000E+03  0.000000E+00  3.000000E+01
 1.000000E+04  0.000000E+00  3.000000E+01
 1.200000E+04  0.000000E+00  3.000000E+01
 1.400000E+04  0.000000E+00  3.000000E+01
 1.600000E+04  0.000000E+00  3.000000E+01
 1.800000E+04  0.000000E+00  3.000000E+01
 2.000000E+04  0.000000E+00  3.000000E+01
 0.000000E+00  1.000000E+00  3.000000E+01
 2.000000E+03  1.000000E+00  3.000000E+01
 4.000000E+03  1.000000E+00  3.000000E+01
 6.000000E+03  1.000000E+00  3.000000E+01
 8.000000E+03  1.000000E+00  3.000000E+01
 1.000000E+04  1.000000E+00  3.000000E+01
 1.200000E+04  1.000000E+00  3.000000E+01
 1.400000E+04  1.000000E+00  3.000000E+01
 1.600000E+04  1.000000E+00  3.000000E+01
 1.800000E+04  1.000000E+00  3.000000E+01
 2.000000E+04  1.000000E+00  3.000000E+01
 0.000000E+00  0.000000E+00  3.500000E+01
 2.000000E+03  0.000000E+00  3.500000E+01
 4.000000E+03  0.000000E+00  3.500000E+01
 6.000000E+03  0.000000E+00  3.500000E+01
 8.000000E+03  0.000000E+00  3.500000E+01
 1.000000E+04  0.000000E+00  3.500000E+01
 1.200000E+04  0.000000E+00  3.500000E+01
 1.400000E+04  0.000000E+00  3.500000E+01
 1.600000E+04  0.000000E+00  3.500000E+01
 1.800000E+04  0.000000E+00  3.500000E+01
 2.000000E+04  0.000000E+00  3.500000E+01
 0.000000E+00  1.000000E+00  3.500000E+01
 2.000000E+03  1.000000E+00  3.500000E+01
 4.000000E+03  1.000000E+00  3.500000E+01
 6.000000E+03  1.000000E+00  3.500000E+01
 8.000000E+03  1.000000E+00  3.500000E+01
 1.000000E+04  1.000000E+00  3.500000E+01
 1.200000E+04  1.000000E+00  3.500000E+01
 1.400000E+04  1.000000E+00  3.500000E+01
 1.600000E+04  1.000000E+00  3.500000E+01
 1.800000E+04  1.000000E+00  3.500000E+01
 2.000000E+04  1.000000E+00  3.500000E+01
 0.000000E+00  0.000000E+00  4.000000E+01
 2.000000E+03  0.000000E+00  4.000000E+01
 4.000000E+03  0.000000E+00  4.000000E+01
 6.000000E+03  0.000000E+00  4.000000E+01
 8.000000E+03  0.000000E+00  4.000000E+01
 1.000000E+04  0.000000E+00  4.000000E+01
 1.200000E+04  0.000000E+00  4.000000E+01
 1.400000E+04  0.000000E+00  4.000000E+01
 1.600000E+04  0.000000E+00  4.000000E+01
 1.800000E+04  0.000000E+00  4.000000E+01
 2.000000E+04  0.000000E+00  4.000000E+01
 0.000000E+00  1.000000E+00  4.000000E+01
 2.000000E+03  1.000000E+00  4.000000E+01
 4.000000E+03  1.000000E+00  4.000000E+01
 6.000000E+03  1.000000E+00  4.000000E+01
 8.000000E+03  1.000000E+00  4.000000E+01
 1.000000E+04  1.000000E+00  4.000000E+01
 1.200000E+04  1.000000E+00  4.000000E+01
 1.400000E+04  1.000000E+00  4.000000E+01
 1.600000E+04  1.000000E+00  4.000000E+01
 1.800000E+04  1.000000E+00  4.000000E+01
 2.000000E+04  1.000000E+00  4.000000E+01
 0.000000E+00  0.000000E+00  4.500000E+01
 2.000000E+03  0.000000E+00  4.500000E+01
 4.000000E+03  0.000000E+00  4.500000E+01
 6.000000E+03  0.000000E+00  4.500000E+01
 8.000000E+03  0.000000E+00  4.500000E+01
 1.000000E+04  0.000000E+00  4.500000E+01
 1.200000E+04  0.000000E+00  4.500000E+01
 1.400000E+04  0.000000E+00  4.500000E+01
 1.600000E+04  0.000000E+00  4.500000E+01
 1.800000E+04  0.000000E+00  4.500000E+01
 2.000000E+04  0.000000E+00  4.500000E+01
 0.000000E+00  1.000000E+00  4.500000E+01
 2.000000E+03  1.000000E+00  4.500000E+01
 4.000000E+03  1.000000E+00  4.500000E+01
 6.000000E+03  1.000000E+00  4.500000E+01
 8.000000E+03  1.000000E+00  4.500000E+01
 1.000000E+04  1.000000E+00  4.500000E+01
 1.200000E+04  1.000000E+00  4.500000E+01
 1.400000E+04  1.000000E+00  4.500000E+01
 1.600000E+04  1.000000E+00  4.500000E+01
 1.800000E+04  1.000000E+00  4.500000E+01
 2.000000E+04  1.000000E+00  4.500000E+01
 0.000000E+00  0.000000E+00  5.000000E+01
 2.000000E+03  0.000000E+00  5.000000E+01
 4.000000E+03  0.000000E+00  5.000000E+01
 6.000000E+03  0.000000E+00  5.000000E+01
 8.000000E+03  0.000000E+00  5.000000E+01
 1.000000E+04  0.000000E+00  5.000000E+01
 1.200000E+04  0.000000E+00  5.000000E+01
 1.400000E+04  0.000000E+00  5.000000E+01
 1.600000E+04  0.000000E+00  5.000000E+01
 1.800000E+04  0.000000E+00  5.000000E+01
 2.000000E+04  0.000000E+00  5.000000E+01
 0.000000E+00  1.000000E+00  5.000000E+01
 2.000000E+03  1.000000E+00  5.000000E+01
 4.000000E+03  1.000000E+00  5.000000E+01
 6.000000E+03  1.000000E+00  5.000000E+01
[...]
CELL_DATA      200
SCALARS Porosity             float 1
LOOKUP_TABLE default
 4.377100E-01  4.377100E-01  4.377100E-01  4.377100E-01  4.377100E-01  4.377100E-01  4.377100E-01  4.377100E-01  4.377100E-01  4.377100E-01
 4.377100E-01  4.377100E-01  4.377100E-01  4.377100E-01  4.377100E-01  4.377100E-01  4.377100E-01  4.377100E-01  4.377100E-01  4.377100E-01
 4.377100E-01  4.377100E-01  4.377100E-01  4.377100E-01  4.377100E-01  4.377100E-01  4.377100E-01  4.377100E-01  4.377100E-01  4.377100E-01
 4.377100E-01  4.377100E-01  4.377100E-01  4.377100E-01  4.377100E-01  4.377100E-01  4.377100E-01  4.377100E-01  4.377100E-01  4.377100E-01
 4.377100E-01  4.377100E-01  4.377100E-01  4.377100E-01  4.377100E-01  4.377100E-01  4.377100E-01  4.377100E-01  4.377100E-01  4.377100E-01
 4.377100E-01  4.377100E-01  4.377100E-01  4.377100E-01  4.377100E-01  4.377100E-01  4.377100E-01  4.377100E-01  4.377100E-01  4.377100E-01
 4.377099E-01  4.377100E-01  4.377100E-01  4.377100E-01  4.377100E-01  4.377100E-01  4.377100E-01  4.377100E-01  4.377100E-01  4.377100E-01
 4.377099E-01  4.377100E-01  4.377100E-01  4.377100E-01  4.377100E-01  4.377100E-01  4.377100E-01  4.377100E-01  4.377100E-01  4.377100E-01
 4.377099E-01  4.377100E-01  4.377100E-01  4.377100E-01  4.377100E-01  4.377100E-01  4.377100E-01  4.377100E-01  4.377100E-01  4.377100E-01
 4.377099E-01  4.377100E-01  4.377100E-01  4.377100E-01  4.377100E-01  4.377100E-01  4.377100E-01  4.377100E-01  4.377100E-01  4.377100E-01
 4.377099E-01  4.377100E-01  4.377100E-01  4.377100E-01  4.377100E-01  4.377100E-01  4.377100E-01  4.377100E-01  4.377100E-01  4.377100E-01
 4.377099E-01  4.377100E-01  4.377100E-01  4.377100E-01  4.377100E-01  4.377100E-01  4.377100E-01  4.377100E-01  4.377100E-01  4.377100E-01
 4.377099E-01  4.377100E-01  4.377100E-01  4.377100E-01  4.377100E-01  4.377100E-01  4.377100E-01  4.377100E-01  4.377100E-01  4.377100E-01
 4.377099E-01  4.377100E-01  4.377100E-01  4.377100E-01  4.377100E-01  4.377100E-01  4.377100E-01  4.377100E-01  4.377100E-01  4.377100E-01
 4.377100E-01  4.377100E-01  4.377100E-01  4.377100E-01  4.377100E-01  4.377100E-01  4.377100E-01  4.377100E-01  4.377100E-01  4.377100E-01
 4.377100E-01  4.377100E-01  4.377100E-01  4.377100E-01  4.377100E-01  4.377100E-01  4.377100E-01  4.377100E-01  4.377100E-01  4.377100E-01
 4.377100E-01  4.377100E-01  4.377100E-01  4.377100E-01  4.377100E-01  4.377100E-01  4.377100E-01  4.377100E-01  4.377100E-01  4.377100E-01
 4.377100E-01  4.377100E-01  4.377100E-01  4.377100E-01  4.377100E-01  4.377100E-01  4.377100E-01  4.377100E-01  4.377100E-01  4.377100E-01
 4.377100E-01  4.377100E-01  4.377100E-01  4.377100E-01  4.377100E-01  4.377100E-01  4.377100E-01  4.377100E-01  4.377100E-01  4.377100E-01
 4.377100E-01  4.377100E-01  4.377100E-01  4.377100E-01  4.377100E-01  4.377100E-01  4.377100E-01  4.377100E-01  4.377100E-01  4.377100E-01


SCALARS Permeability         float 1
LOOKUP_TABLE default
 8.829805E-13  8.829804E-13  8.829804E-13  8.829804E-13  8.829804E-13  8.829804E-13  8.829804E-13  8.829804E-13  8.829803E-13  8.829803E-13
 8.829805E-13  8.829804E-13  8.829804E-13  8.829804E-13  8.829804E-13  8.829804E-13  8.829804E-13  8.829804E-13  8.829804E-13  8.829803E-13
 8.829805E-13  8.829804E-13  8.829804E-13  8.829804E-13  8.829804E-13  8.829804E-13  8.829804E-13  8.829804E-13  8.829804E-13  8.829804E-13
 8.829805E-13  8.829804E-13  8.829804E-13  8.829804E-13  8.829804E-13  8.829804E-13  8.829804E-13  8.829804E-13  8.829804E-13  8.829804E-13
 8.829805E-13  8.829804E-13  8.829804E-13  8.829804E-13  8.829804E-13  8.829804E-13  8.829804E-13  8.829804E-13  8.829804E-13  8.829804E-13
 8.829805E-13  8.829804E-13  8.829804E-13  8.829804E-13  8.829804E-13  8.829804E-13  8.829804E-13  8.829804E-13  8.829804E-13  8.829804E-13
 8.829799E-13  8.829805E-13  8.829804E-13  8.829804E-13  8.829804E-13  8.829804E-13  8.829804E-13  8.829804E-13  8.829804E-13  8.829804E-13
 8.829799E-13  8.829805E-13  8.829804E-13  8.829804E-13  8.829804E-13  8.829804E-13  8.829804E-13  8.829804E-13  8.829804E-13  8.829804E-13
 8.829799E-13  8.829805E-13  8.829804E-13  8.829804E-13  8.829804E-13  8.829804E-13  8.829804E-13  8.829804E-13  8.829804E-13  8.829804E-13
 8.829799E-13  8.829805E-13  8.829804E-13  8.829804E-13  8.829804E-13  8.829804E-13  8.829804E-13  8.829804E-13  8.829804E-13  8.829804E-13
 8.829799E-13  8.829805E-13  8.829804E-13  8.829804E-13  8.829804E-13  8.829804E-13  8.829804E-13  8.829804E-13  8.829804E-13  8.829804E-13
 8.829799E-13  8.829805E-13  8.829804E-13  8.829804E-13  8.829804E-13  8.829804E-13  8.829804E-13  8.829804E-13  8.829804E-13  8.829804E-13
 8.829799E-13  8.829805E-13  8.829804E-13  8.829804E-13  8.829804E-13  8.829804E-13  8.829804E-13  8.829804E-13  8.829804E-13  8.829804E-13
 8.829799E-13  8.829805E-13  8.829804E-13  8.829804E-13  8.829804E-13  8.829804E-13  8.829804E-13  8.829804E-13  8.829804E-13  8.829804E-13
 8.829806E-13  8.829805E-13  8.829804E-13  8.829804E-13  8.829804E-13  8.829804E-13  8.829804E-13  8.829804E-13  8.829804E-13  8.829804E-13
 8.829806E-13  8.829805E-13  8.829804E-13  8.829804E-13  8.829804E-13  8.829804E-13  8.829804E-13  8.829804E-13  8.829804E-13  8.829804E-13
 8.829806E-13  8.829805E-13  8.829804E-13  8.829804E-13  8.829804E-13  8.829804E-13  8.829804E-13  8.829804E-13  8.829804E-13  8.829804E-13
 8.829806E-13  8.829805E-13  8.829804E-13  8.829804E-13  8.829804E-13  8.829804E-13  8.829804E-13  8.829804E-13  8.829804E-13  8.829804E-13
 8.829806E-13  8.829805E-13  8.829805E-13  8.829804E-13  8.829804E-13  8.829804E-13  8.829804E-13  8.829804E-13  8.829804E-13  8.829804E-13
 8.829806E-13  8.829805E-13  8.829805E-13  8.829804E-13  8.829804E-13  8.829804E-13  8.829804E-13  8.829804E-13  8.829804E-13  8.829804E-13


SCALARS Liquid_Pressure      float 1
LOOKUP_TABLE default
 8.245062E+06  7.879724E+06  7.718538E+06  7.630548E+06  7.579399E+06  7.548125E+06  7.527143E+06  7.510949E+06  7.496740E+06  7.483522E+06
 8.199897E+06  7.834563E+06  7.673381E+06  7.585393E+06  7.534245E+06  7.502972E+06  7.481991E+06  7.465797E+06  7.451588E+06  7.438370E+06
 8.154737E+06  7.789403E+06  7.628225E+06  7.540239E+06  7.489093E+06  7.457820E+06  7.436840E+06  7.420646E+06  7.406438E+06  7.393220E+06
 8.109583E+06  7.744244E+06  7.583070E+06  7.495087E+06  7.443942E+06  7.412670E+06  7.391690E+06  7.375497E+06  7.361289E+06  7.348072E+06
 8.064436E+06  7.699086E+06  7.537917E+06  7.449936E+06  7.398792E+06  7.367521E+06  7.346541E+06  7.330349E+06  7.316141E+06  7.302924E+06
 8.019294E+06  7.653930E+06  7.492765E+06  7.404786E+06  7.353643E+06  7.322373E+06  7.301394E+06  7.285202E+06  7.270994E+06  7.257778E+06
 7.974159E+06  7.608775E+06  7.447614E+06  7.359637E+06  7.308496E+06  7.277227E+06  7.256248E+06  7.240056E+06  7.225849E+06  7.212633E+06
 7.929017E+06  7.563622E+06  7.402464E+06  7.314490E+06  7.263350E+06  7.232081E+06  7.211103E+06  7.194912E+06  7.180705E+06  7.167489E+06
 7.883870E+06  7.518469E+06  7.357316E+06  7.269344E+06  7.218205E+06  7.186937E+06  7.165960E+06  7.149769E+06  7.135562E+06  7.122347E+06
 7.838717E+06  7.473318E+06  7.312169E+06  7.224199E+06  7.173061E+06  7.141795E+06  7.120818E+06  7.104627E+06  7.090421E+06  7.077206E+06
 7.793558E+06  7.428168E+06  7.267023E+06  7.179055E+06  7.127919E+06  7.096653E+06  7.075677E+06  7.059486E+06  7.045281E+06  7.032066E+06
 7.748393E+06  7.383020E+06  7.221879E+06  7.133913E+06  7.082778E+06  7.051513E+06  7.030537E+06  7.014347E+06  7.000142E+06  6.986927E+06
 7.703222E+06  7.337872E+06  7.176735E+06  7.088772E+06  7.037638E+06  7.006374E+06  6.985398E+06  6.969209E+06  6.955004E+06  6.941790E+06
 7.658045E+06  7.292726E+06  7.131593E+06  7.043632E+06  6.992500E+06  6.961236E+06  6.940261E+06  6.924072E+06  6.909867E+06  6.896654E+06
 7.612862E+06  7.247581E+06  7.086452E+06  6.998493E+06  6.947362E+06  6.916099E+06  6.895125E+06  6.878937E+06  6.864732E+06  6.851519E+06
 7.567686E+06  7.202438E+06  7.041313E+06  6.953356E+06  6.902226E+06  6.870964E+06  6.849991E+06  6.833802E+06  6.819598E+06  6.806385E+06
 7.522515E+06  7.157295E+06  6.996175E+06  6.908220E+06  6.857092E+06  6.825830E+06  6.804857E+06  6.788669E+06  6.774466E+06  6.761253E+06
 7.477350E+06  7.112154E+06  6.951038E+06  6.863085E+06  6.811958E+06  6.780698E+06  6.759725E+06  6.743538E+06  6.729334E+06  6.716122E+06
 7.432192E+06  7.067014E+06  6.905902E+06  6.817952E+06  6.766826E+06  6.735566E+06  6.714594E+06  6.698407E+06  6.684204E+06  6.670992E+06
 7.387039E+06  7.021876E+06  6.860768E+06  6.772820E+06  6.721695E+06  6.690436E+06  6.669464E+06  6.653278E+06  6.639075E+06  6.625864E+06


SCALARS Temperature          float 1
LOOKUP_TABLE default
 1.500435E+02  1.500220E+02  1.500124E+02  1.500072E+02  1.500042E+02  1.500023E+02  1.500011E+02  1.500001E+02  1.499993E+02  1.499985E+02
 1.500435E+02  1.500220E+02  1.500124E+02  1.500072E+02  1.500042E+02  1.500023E+02  1.500011E+02  1.500001E+02  1.499993E+02  1.499985E+02
 1.500435E+02  1.500220E+02  1.500124E+02  1.500072E+02  1.500042E+02  1.500023E+02  1.500011E+02  1.500001E+02  1.499993E+02  1.499985E+02
 1.500435E+02  1.500220E+02  1.500124E+02  1.500072E+02  1.500042E+02  1.500023E+02  1.500011E+02  1.500001E+02  1.499993E+02  1.499985E+02
 1.500435E+02  1.500220E+02  1.500124E+02  1.500072E+02  1.500042E+02  1.500023E+02  1.500011E+02  1.500001E+02  1.499993E+02  1.499985E+02
 1.500435E+02  1.500220E+02  1.500124E+02  1.500072E+02  1.500042E+02  1.500023E+02  1.500011E+02  1.500001E+02  1.499993E+02  1.499985E+02
 1.500434E+02  1.500220E+02  1.500124E+02  1.500072E+02  1.500042E+02  1.500023E+02  1.500011E+02  1.500001E+02  1.499993E+02  1.499985E+02
 1.500434E+02  1.500220E+02  1.500124E+02  1.500072E+02  1.500042E+02  1.500023E+02  1.500011E+02  1.500001E+02  1.499993E+02  1.499985E+02
 1.500435E+02  1.500220E+02  1.500124E+02  1.500072E+02  1.500042E+02  1.500023E+02  1.500011E+02  1.500001E+02  1.499993E+02  1.499985E+02
 1.500435E+02  1.500220E+02  1.500124E+02  1.500072E+02  1.500042E+02  1.500023E+02  1.500011E+02  1.500001E+02  1.499993E+02  1.499985E+02
 1.500435E+02  1.500220E+02  1.500124E+02  1.500072E+02  1.500042E+02  1.500023E+02  1.500011E+02  1.500001E+02  1.499993E+02  1.499985E+02
 1.500435E+02  1.500220E+02  1.500124E+02  1.500072E+02  1.500042E+02  1.500023E+02  1.500011E+02  1.500001E+02  1.499993E+02  1.499985E+02
 1.500435E+02  1.500220E+02  1.500124E+02  1.500072E+02  1.500042E+02  1.500023E+02  1.500011E+02  1.500001E+02  1.499993E+02  1.499985E+02
 1.500435E+02  1.500220E+02  1.500124E+02  1.500072E+02  1.500042E+02  1.500023E+02  1.500011E+02  1.500001E+02  1.499993E+02  1.499985E+02
 1.500437E+02  1.500220E+02  1.500124E+02  1.500072E+02  1.500042E+02  1.500023E+02  1.500011E+02  1.500001E+02  1.499993E+02  1.499985E+02
 1.500437E+02  1.500220E+02  1.500125E+02  1.500072E+02  1.500042E+02  1.500023E+02  1.500011E+02  1.500001E+02  1.499993E+02  1.499985E+02
 1.500437E+02  1.500220E+02  1.500125E+02  1.500072E+02  1.500042E+02  1.500023E+02  1.500011E+02  1.500001E+02  1.499993E+02  1.499985E+02
 1.500437E+02  1.500220E+02  1.500125E+02  1.500072E+02  1.500042E+02  1.500023E+02  1.500011E+02  1.500001E+02  1.499993E+02  1.499985E+02
 1.500437E+02  1.500220E+02  1.500125E+02  1.500072E+02  1.500042E+02  1.500023E+02  1.500011E+02  1.500001E+02  1.499993E+02  1.499985E+02
 1.500437E+02  1.500220E+02  1.500125E+02  1.500072E+02  1.500042E+02  1.500023E+02  1.500011E+02  1.500001E+02  1.499993E+02  1.499985E+02


SCALARS pH                   float 1
LOOKUP_TABLE default
 6.144333E+00  6.144301E+00  6.144287E+00  6.144279E+00  6.144274E+00  6.144272E+00  6.144270E+00  6.144268E+00  6.144267E+00  6.144266E+00
 6.144333E+00  6.144301E+00  6.144287E+00  6.144279E+00  6.144274E+00  6.144272E+00  6.144270E+00  6.144268E+00  6.144267E+00  6.144266E+00
 6.144333E+00  6.144301E+00  6.144287E+00  6.144279E+00  6.144275E+00  6.144272E+00  6.144270E+00  6.144268E+00  6.144267E+00  6.144266E+00
 6.144333E+00  6.144301E+00  6.144287E+00  6.144279E+00  6.144275E+00  6.144272E+00  6.144270E+00  6.144268E+00  6.144267E+00  6.144266E+00
 6.144333E+00  6.144301E+00  6.144287E+00  6.144279E+00  6.144275E+00  6.144272E+00  6.144270E+00  6.144268E+00  6.144267E+00  6.144266E+00
 6.144333E+00  6.144301E+00  6.144287E+00  6.144279E+00  6.144275E+00  6.144272E+00  6.144270E+00  6.144268E+00  6.144267E+00  6.144266E+00
 6.144336E+00  6.144301E+00  6.144287E+00  6.144279E+00  6.144275E+00  6.144272E+00  6.144270E+00  6.144268E+00  6.144267E+00  6.144266E+00
 6.144336E+00  6.144301E+00  6.144287E+00  6.144279E+00  6.144275E+00  6.144272E+00  6.144270E+00  6.144268E+00  6.144267E+00  6.144266E+00
 6.144336E+00  6.144301E+00  6.144287E+00  6.144279E+00  6.144275E+00  6.144272E+00  6.144270E+00  6.144268E+00  6.144267E+00  6.144266E+00
 6.144336E+00  6.144301E+00  6.144287E+00  6.144279E+00  6.144275E+00  6.144272E+00  6.144270E+00  6.144268E+00  6.144267E+00  6.144266E+00
 6.144336E+00  6.144301E+00  6.144287E+00  6.144279E+00  6.144275E+00  6.144272E+00  6.144270E+00  6.144268E+00  6.144267E+00  6.144266E+00
 6.144336E+00  6.144301E+00  6.144287E+00  6.144279E+00  6.144275E+00  6.144272E+00  6.144270E+00  6.144268E+00  6.144267E+00  6.144266E+00
 6.144336E+00  6.144301E+00  6.144287E+00  6.144279E+00  6.144275E+00  6.144272E+00  6.144270E+00  6.144269E+00  6.144267E+00  6.144266E+00
 6.144336E+00  6.144301E+00  6.144287E+00  6.144279E+00  6.144275E+00  6.144272E+00  6.144270E+00  6.144269E+00  6.144267E+00  6.144266E+00
 6.144333E+00  6.144301E+00  6.144287E+00  6.144279E+00  6.144275E+00  6.144272E+00  6.144270E+00  6.144269E+00  6.144267E+00  6.144266E+00
 6.144333E+00  6.144301E+00  6.144287E+00  6.144279E+00  6.144275E+00  6.144272E+00  6.144270E+00  6.144269E+00  6.144267E+00  6.144266E+00
 6.144333E+00  6.144301E+00  6.144287E+00  6.144279E+00  6.144275E+00  6.144272E+00  6.144270E+00  6.144269E+00  6.144267E+00  6.144266E+00
 6.144333E+00  6.144301E+00  6.144287E+00  6.144279E+00  6.144275E+00  6.144272E+00  6.144270E+00  6.144269E+00  6.144267E+00  6.144266E+00
 6.144333E+00  6.144301E+00  6.144287E+00  6.144279E+00  6.144275E+00  6.144272E+00  6.144270E+00  6.144269E+00  6.144267E+00  6.144266E+00
 6.144333E+00  6.144301E+00  6.144287E+00  6.144279E+00  6.144275E+00  6.144272E+00  6.144270E+00  6.144269E+00  6.144267E+00  6.144266E+00


SCALARS Total_H+             float 1
LOOKUP_TABLE default
-3.046772E-03 -3.047522E-03 -3.047857E-03 -3.048040E-03 -3.048147E-03 -3.048212E-03 -3.048256E-03 -3.048290E-03 -3.048319E-03 -3.048346E-03
-3.046772E-03 -3.047522E-03 -3.047856E-03 -3.048039E-03 -3.048146E-03 -3.048212E-03 -3.048256E-03 -3.048289E-03 -3.048319E-03 -3.048345E-03
-3.046771E-03 -3.047521E-03 -3.047856E-03 -3.048039E-03 -3.048146E-03 -3.048211E-03 -3.048255E-03 -3.048289E-03 -3.048318E-03 -3.048345E-03
-3.046771E-03 -3.047521E-03 -3.047855E-03 -3.048039E-03 -3.048145E-03 -3.048211E-03 -3.048255E-03 -3.048289E-03 -3.048318E-03 -3.048345E-03
-3.046771E-03 -3.047520E-03 -3.047855E-03 -3.048038E-03 -3.048145E-03 -3.048211E-03 -3.048254E-03 -3.048288E-03 -3.048317E-03 -3.048344E-03
-3.046770E-03 -3.047520E-03 -3.047854E-03 -3.048038E-03 -3.048145E-03 -3.048210E-03 -3.048254E-03 -3.048288E-03 -3.048317E-03 -3.048344E-03
-3.046748E-03 -3.047519E-03 -3.047854E-03 -3.048037E-03 -3.048144E-03 -3.048210E-03 -3.048254E-03 -3.048287E-03 -3.048317E-03 -3.048344E-03
-3.046747E-03 -3.047519E-03 -3.047853E-03 -3.048037E-03 -3.048144E-03 -3.048209E-03 -3.048253E-03 -3.048287E-03 -3.048316E-03 -3.048343E-03
-3.046746E-03 -3.047518E-03 -3.047853E-03 -3.048036E-03 -3.048143E-03 -3.048209E-03 -3.048253E-03 -3.048287E-03 -3.048316E-03 -3.048343E-03
-3.046745E-03 -3.047518E-03 -3.047853E-03 -3.048036E-03 -3.048143E-03 -3.048208E-03 -3.048252E-03 -3.048286E-03 -3.048316E-03 -3.048342E-03
-3.046745E-03 -3.047517E-03 -3.047852E-03 -3.048036E-03 -3.048143E-03 -3.048208E-03 -3.048252E-03 -3.048286E-03 -3.048315E-03 -3.048342E-03
-3.046744E-03 -3.047517E-03 -3.047852E-03 -3.048035E-03 -3.048142E-03 -3.048208E-03 -3.048252E-03 -3.048285E-03 -3.048315E-03 -3.048342E-03
-3.046743E-03 -3.047516E-03 -3.047851E-03 -3.048035E-03 -3.048142E-03 -3.048207E-03 -3.048251E-03 -3.048285E-03 -3.048314E-03 -3.048341E-03
-3.046742E-03 -3.047516E-03 -3.047851E-03 -3.048034E-03 -3.048141E-03 -3.048207E-03 -3.048251E-03 -3.048285E-03 -3.048314E-03 -3.048341E-03
-3.046761E-03 -3.047515E-03 -3.047850E-03 -3.048034E-03 -3.048141E-03 -3.048206E-03 -3.048250E-03 -3.048284E-03 -3.048314E-03 -3.048340E-03
-3.046761E-03 -3.047515E-03 -3.047850E-03 -3.048033E-03 -3.048140E-03 -3.048206E-03 -3.048250E-03 -3.048284E-03 -3.048313E-03 -3.048340E-03
-3.046761E-03 -3.047514E-03 -3.047849E-03 -3.048033E-03 -3.048140E-03 -3.048206E-03 -3.048250E-03 -3.048283E-03 -3.048313E-03 -3.048340E-03
-3.046761E-03 -3.047514E-03 -3.047849E-03 -3.048033E-03 -3.048140E-03 -3.048205E-03 -3.048249E-03 -3.048283E-03 -3.048312E-03 -3.048339E-03
-3.046760E-03 -3.047513E-03 -3.047849E-03 -3.048032E-03 -3.048139E-03 -3.048205E-03 -3.048249E-03 -3.048283E-03 -3.048312E-03 -3.048339E-03
-3.046760E-03 -3.047513E-03 -3.047848E-03 -3.048032E-03 -3.048139E-03 -3.048204E-03 -3.048248E-03 -3.048282E-03 -3.048312E-03 -3.048338E-03


SCALARS Total_SiO2(aq)       float 1
LOOKUP_TABLE default
 1.039578E-02  1.039393E-02  1.039311E-02  1.039266E-02  1.039240E-02  1.039225E-02  1.039214E-02  1.039206E-02  1.039199E-02  1.039192E-02
 1.039578E-02  1.039393E-02  1.039311E-02  1.039266E-02  1.039240E-02  1.039225E-02  1.039214E-02  1.039206E-02  1.039199E-02  1.039192E-02
 1.039578E-02  1.039393E-02  1.039311E-02  1.039266E-02  1.039240E-02  1.039225E-02  1.039214E-02  1.039206E-02  1.039199E-02  1.039192E-02
 1.039578E-02  1.039393E-02  1.039311E-02  1.039266E-02  1.039240E-02  1.039225E-02  1.039214E-02  1.039206E-02  1.039199E-02  1.039192E-02
 1.039578E-02  1.039393E-02  1.039311E-02  1.039266E-02  1.039240E-02  1.039225E-02  1.039214E-02  1.039206E-02  1.039199E-02  1.039192E-02
 1.039578E-02  1.039393E-02  1.039311E-02  1.039266E-02  1.039240E-02  1.039225E-02  1.039214E-02  1.039206E-02  1.039199E-02  1.039192E-02
 1.039600E-02  1.039393E-02  1.039311E-02  1.039266E-02  1.039240E-02  1.039225E-02  1.039214E-02  1.039206E-02  1.039199E-02  1.039192E-02
 1.039600E-02  1.039393E-02  1.039311E-02  1.039266E-02  1.039240E-02  1.039225E-02  1.039214E-02  1.039206E-02  1.039199E-02  1.039192E-02
 1.039600E-02  1.039393E-02  1.039311E-02  1.039266E-02  1.039240E-02  1.039225E-02  1.039214E-02  1.039206E-02  1.039199E-02  1.039192E-02
 1.039600E-02  1.039393E-02  1.039311E-02  1.039266E-02  1.039240E-02  1.039225E-02  1.039214E-02  1.039206E-02  1.039199E-02  1.039192E-02
 1.039600E-02  1.039393E-02  1.039311E-02  1.039266E-02  1.039240E-02  1.039225E-02  1.039214E-02  1.039206E-02  1.039199E-02  1.039192E-02
 1.039601E-02  1.039393E-02  1.039311E-02  1.039266E-02  1.039240E-02  1.039225E-02  1.039214E-02  1.039206E-02  1.039199E-02  1.039192E-02
 1.039601E-02  1.039393E-02  1.039311E-02  1.039266E-02  1.039240E-02  1.039225E-02  1.039214E-02  1.039206E-02  1.039199E-02  1.039192E-02
 1.039601E-02  1.039393E-02  1.039311E-02  1.039266E-02  1.039240E-02  1.039225E-02  1.039214E-02  1.039206E-02  1.039199E-02  1.039192E-02
 1.039579E-02  1.039393E-02  1.039311E-02  1.039266E-02  1.039240E-02  1.039225E-02  1.039214E-02  1.039206E-02  1.039199E-02  1.039192E-02
 1.039579E-02  1.039393E-02  1.039311E-02  1.039266E-02  1.039240E-02  1.039225E-02  1.039214E-02  1.039206E-02  1.039199E-02  1.039192E-02
 1.039579E-02  1.039393E-02  1.039311E-02  1.039266E-02  1.039240E-02  1.039225E-02  1.039214E-02  1.039206E-02  1.039199E-02  1.039192E-02
 1.039579E-02  1.039393E-02  1.039311E-02  1.039266E-02  1.039240E-02  1.039225E-02  1.039214E-02  1.039206E-02  1.039199E-02  1.039192E-02
 1.039579E-02  1.039393E-02  1.039311E-02  1.039266E-02  1.039240E-02  1.039225E-02  1.039214E-02  1.039206E-02  1.039199E-02  1.039192E-02