# vtk DataFile Version 2.0
PFLOTRAN output
ASCII
DATASET UNSTRUCTURED_GRID
POINTS          462 float
 0.000000E+00  0.000000E+00  0.000000E+00
 2.000000E+03  0.000000E+00  0.000000E+00
 4.000000E+03  0.000000E+00  0.000000E+00
 6.000000E+03  0.000000E+00  0.000000E+00
 8.000000E+03  0.000000E+00  0.000000E+00
 1.000000E+04  0.000000E+00  0.000000E+00
 1.200000E+04  0.000000E+00  0.000000E+00
 1.400000E+04  0.000000E+00  0.000000E+00
 1.600000E+04  0.000000E+00  0.000000E+00
 1.800000E+04  0.000000E+00  0.000000E+00
 2.000000E+04  0.000000E+00  0.000000E+00
 0.000000E+00  1.000000E+00  0.000000E+00
 2.000000E+03  1.000000E+00  0.000000E+00
 4.000000E+03  1.000000E+00  0.000000E+00
 6.000000E+03  1.000000E+00  0.000000E+00
 8.000000E+03  1.000000E+00  0.000000E+00
 1.000000E+04  1.000000E+00  0.000000E+00
 1.200000E+04  1.000000E+00  0.000000E+00
 1.400000E+04  1.000000E+00  0.000000E+00
 1.600000E+04  1.000000E+00  0.000000E+00
 1.800000E+04  1.000000E+00  0.000000E+00
 2.000000E+04  1.000000E+00  0.000000E+00
 0.000000E+00  0.000000E+00  5.000000E+00
 2.000000E+03  0.000000E+00  5.000000E+00
 4.000000E+03  0.000000E+00  5.000000E+00
 6.000000E+03  0.000000E+00  5.000000E+00
 8.000000E+03  0.000000E+00  5.000000E+00
 1.000000E+04  0.000000E+00  5.000000E+00
 1.200000E+04  0.000000E+00  5.000000E+00
 1.400000E+04  0.000000E+00  5.000000E+00
 1.600000E+04  0.000000E+00  5.000000E+00
 1.800000E+04  0.000000E+00  5.000000E+00
 2.000000E+04  0.000000E+00  5.000000E+00
 0.000000E+00  1.000000E+00  5.000000E+00
 2.000000E+03  1.000000E+00  5.000000E+00
 4.000000E+03  1.000000E+00  5.000000E+00
 6.000000E+03  1.000000E+00  5.000000E+00
 8.000000E+03  1.000000E+00  5.000000E+00
 1.000000E+04  1.000000E+00  5.000000E+00
 1.200000E+04  1.000000E+00  5.000000E+00
 1.400000E+04  1.000000E+00  5.000000E+00
 1.600000E+04  1.000000E+00  5.000000E+00
 1.800000E+04  1.000000E+00  5.000000E+00
 2.000000E+04  1.000000E+00  5.000000E+00
 0.000000E+00  0.000000E+00  1.000000E+01
 2.000000E+03  0.000000E+00  1.000000E+01
 4.000000E+03  0.000000E+00  1.000000E+01
 6.000000E+03  0.000000E+00  1.000000E+01
 8.000000E+03  0.000000E+00  1.000000E+01
 1.000000E+04  0.000000E+00  1.000000E+01
 1.200000E+04  0.000000E+00  1.000000E+01
 1.400000E+04  0.000000E+00  1.000000E+01
 1.600000E+04  0.000000E+00  1.000000E+01
 1.800000E+04  0.000000E+00  1.000000E+01
 2.000000E+04  0.000000E+00  1.000000E+01
 0.000000E+00  1.000000E+00  1.000000E+01
 2.000000E+03  1.000000E+00  1.000000E+01
 4.000000E+03  1.000000E+00  1.000000E+01
 6.000000E+03  1.000000E+00  1.000000E+01
 8.000000E+03  1.000000E+00  1.000000E+01
 1.000000E+04  1.000000E+00  1.000000E+01
 1.200000E+04  1.000000E+00  1.000000E+01
 1.400000E+04  1.000000E+00  1.000000E+01
 1.600000E+04  1.000000E+00  1.000000E+01
 1.800000E+04  1.000000E+00  1.000000E+01
 2.000000E+04  1.000000E+00  1.000000E+01
 0.000000E+00  0.000000E+00  1.500000E+01
 2.000000E+03  0.000000E+00  1.500000E+01
 4.000000E+03  0.000000E+00  1.500000E+01
 6.000000E+03  0.000000E+00  1.500000E+01
 8.000000E+03  0.000000E+00  1.500000E+01
 1.000000E+04  0.000000E+00  1.500000E+01
 1.200000E+04  0.000000E+00  1.500000E+01
 1.400000E+04  0.000000E+00  1.500000E+01
 1.600000E+04  0.000000E+00  1.500000E+01
 1.800000E+04  0.000000E+00  1.500000E+01
 2.000000E+04  0.000000E+00  1.500000E+01
 0.000000E+00  1.000000E+00  1.500000E+01
 2.000000E+03  1.000000E+00  1.500000E+01
 4.000000E+03  1.000000E+00  1.500000E+01
 6.000000E+03  1.000000E+00  1.500000E+01
 8.000000E+03  1.000000E+00  1.500000E+01
 1.000000E+04  1.000000E+00  1.500000E+01
 1.200000E+04  1.000000E+00  1.500000E+01
 1.400000E+04  1.000000E+00  1.500000E+01
 1.600000E+04  1.000000E+00  1.500000E+01
 1.800000E+04  1.000000E+00  1.500000E+01
 2.000000E+04  1.000000E+00  1.500000E+01
 0.000000E+00  0.000000E+00  2.000000E+01
 2.000000E+03  0.000000E+00  2.000000E+01
 4.000000E+03  0.000000E+00  2.000000E+01
 6.000000E+03  0.000000E+00  2.000000E+01
 8.000000E+03  0.000000E+00  2.000000E+01
 1.000000E+04  0.000000E+00  2.000000E+01
 1.200000E+04  0.000000E+00  2.000000E+01
 1.400000E+04  0.000000E+00  2.000000E+01
 1.600000E+04  0.000000E+00  2.000000E+01
 1.800000E+04  0.000000E+00  2.000000E+01
 2.000000E+04  0.000000E+00  2.000000E+01
 0.000000E+00  1.000000E+00  2.000000E+01
 2.000000E+03  1.000000E+00  2.000000E+01
 4.000000E+03  1.000000E+00  2.000000E+01
 6.000000E+03  1.000000E+00  2.000000E+01
 8.000000E+03  1.000000E+00  2.000000E+01
 1.000000E+04  1.000000E+00  2.000000E+01
 1.200000E+04  1.000000E+00  2.000000E+01
 1.400000E+04  1.000000E+00  2.000000E+01
 1.600000E+04  1.000000E+00  2.000000E+01
 1.800000E+04  1.000000E+00  2.000000E+01
 2.000000E+04  1.000000E+00  2.000000E+01
 0.000000E+00  0.000000E+00  2.500000E+01
 2.000000E+03  0.000000E+00  2.500000E+01
 4.000000E+03  0.000000E+00  2.500000E+01
 6.000000E+03  0.000000E+00  2.500000E+01
 8.000000E+03  0.000000E+00  2.500000E+01
 1.000000E+04  0.000000E+00  2.500000E+01
 1.200000E+04  0.000000E+00  2.500000E+01
 1.400000E+04  0.000000E+00  2.500000E+01
 1.600000E+04  0.000000E+00  2.500000E+01
 1.800000E+04  0.000000E+00  2.500000E+01
 2.000000E+04  0.000000E+00  2.500000E+01
 0.000000E+00  1.000000E+00  2.500000E+01
 2.000000E+03  1.000000E+00  2.500000E+01
 4.000000E+03  1.000000E+00  2.500000E+01
 6.000000E+03  1.000000E+00  2.500000E+01
 8.000000E+03  1.000000E+00  2.500000E+01
 1.000000E+04  1.000000E+00  2.500000E+01
 1.200000E+04  1.000000E+00  2.500000E+01
 1.400000E+04  1.000000E+00  2.500000E+01
 1.600000E+04  1.000000E+00  2.500000E+01
 1.800000E+04  1.000000E+00  2.500000E+01
 2.000000E+04  1.000000E+00  2.500000E+01
 0.000000E+00  0.000000E+00  3.000000E+01
 2.000000E+03  0.000000E+00  3.000000E+01
 4.000000E+03  0.000000E+00  3.000000E+01
 6.000000E+03  0.000000E+00  3.000000E+01
 8.000000E+03  0.000000E+00  3.000000E+01
 1.000000E+04  0.000000E+00  3.000000E+01
 1.200000E+04  0.000000E+00  3.000000E+01
 1.400000E+04  0.000000E+00  3.000000E+01
 1.600000E+04  0.000000E+00  3.000000E+01
 1.800000E+04  0.000000E+00  3.000000E+01
 2.000000E+04  0.000000E+00  3.000000E+01
 0.000000E+00  1.000000E+00  3.000000E+01
 2.000000E+03  1.000000E+00  3.000000E+01
 4.000000E+03  1.000000E+00  3.000000E+01
 6.000000E+03  1.000000E+00  3.000000E+01
 8.000000E+03  1.000000E+00  3.000000E+01
 1.000000E+04  1.000000E+00  3.000000E+01
 1.200000E+04  1.000000E+00  3.000000E+01
 1.400000E+04  1.000000E+00  3.000000E+01
 1.600000E+04  1.000000E+00  3.000000E+01
 1.800000E+04  1.000000E+00  3.000000E+01
 2.000000E+04  1.000000E+00  3.000000E+01
 0.000000E+00  0.000000E+00  3.500000E+01
 2.000000E+03  0.000000E+00  3.500000E+01
 4.000000E+03  0.000000E+00  3.500000E+01
 6.000000E+03  0.000000E+00  3.500000E+01
 8.000000E+03  0.000000E+00  3.500000E+01
 1.000000E+04  0.000000E+00  3.500000E+01
 1.200000E+04  0.000000E+00  3.500000E+01
 1.400000E+04  0.000000E+00  3.500000E+01
 1.600000E+04  0.000000E+00  3.500000E+01
 1.800000E+04  0.000000E+00  3.500000E+01
 2.000000E+04  0.000000E+00  3.500000E+01
 0.000000E+00  1.000000E+00  3.500000E+01
 2.000000E+03  1.000000E+00  3.500000E+01
 4.000000E+03  1.000000E+00  3.500000E+01
 6.000000E+03  1.000000E+00  3.500000E+01
 8.000000E+03  1.000000E+00  3.500000E+01
 1.000000E+04  1.000000E+00  3.500000E+01
 1.200000E+04  1.000000E+00  3.500000E+01
 1.400000E+04  1.000000E+00  3.500000E+01
 1.600000E+04  1.000000E+00  3.500000E+01
 1.800000E+04  1.000000E+00  3.500000E+01
 2.000000E+04  1.000000E+00  3.500000E+01
 0.000000E+00  0.000000E+00  4.000000E+01
 2.000000E+03  0.000000E+00  4.000000E+01
 4.000000E+03  0.000000E+00  4.000000E+01
 6.000000E+03  0.000000E+00  4.000000E+01
 8.000000E+03  0.000000E+00  4.000000E+01
 1.000000E+04  0.000000E+00  4.000000E+01
 1.200000E+04  0.000000E+00  4.000000E+01
 1.400000E+04  0.000000E+00  4.000000E+01
 1.600000E+04  0.000000E+00  4.000000E+01
 1.800000E+04  0.000000E+00  4.000000E+01
 2.000000E+04  0.000000E+00  4.000000E+01
 0.000000E+00  1.000000E+00  4.000000E+01
 2.000000E+03  1.000000E+00  4.000000E+01
 4.000000E+03  1.000000E+00  4.000000E+01
 6.000000E+03  1.000000E+00  4.000000E+01
 8.000000E+03  1.000000E+00  4.000000E+01
 1.000000E+04  1.000000E+00  4.000000E+01
 1.200000E+04  1.000000E+00  4.000000E+01
 1.400000E+04  1.000000E+00  4.000000E+01
 1.600000E+04  1.000000E+00  4.000000E+01
 1.800000E+04  1.000000E+00  4.000000E+01
 2.000000E+04  1.000000E+00  4.000000E+01
 0.000000E+00  0.000000E+00  4.500000E+01
 2.000000E+03  0.000000E+00  4.500000E+01
 4.000000E+03  0.000000E+00  4.500000E+01
 6.000000E+03  0.000000E+00  4.500000E+01
 8.000000E+03  0.000000E+00  4.500000E+01
 1.000000E+04  0.000000E+00  4.500000E+01
 1.200000E+04  0.000000E+00  4.500000E+01
 1.400000E+04  0.000000E+00  4.500000E+01
 1.600000E+04  0.000000E+00  4.500000E+01
 1.800000E+04  0.000000E+00  4.500000E+01
 2.000000E+04  0.000000E+00  4.500000E+01
 0.000000E+00  1.000000E+00  4.500000E+01
 2.000000E+03  1.000000E+00  4.500000E+01
 4.000000E+03  1.000000E+00  4.500000E+01
 6.000000E+03  1.000000E+00  4.500000E+01
 8.000000E+03  1.000000E+00  4.500000E+01
 1.000000E+04  1.000000E+00  4.500000E+01
 1.200000E+04  1.000000E+00  4.500000E+01
 1.400000E+04  1.000000E+00  4.500000E+01
 1.600000E+04  1.000000E+00  4.500000E+01
 1.800000E+04  1.000000E+00  4.500000E+01
 2.000000E+04  1.000000E+00  4.500000E+01
 0.000000E+00  0.000000E+00  5.000000E+01
 2.000000E+03  0.000000E+00  5.000000E+01
 4.000000E+03  0.000000E+00  5.000000E+01
 6.000000E+03  0.000000E+00  5.000000E+01
 8.000000E+03  0.000000E+00  5.000000E+01
 1.000000E+04  0.000000E+00  5.000000E+01
 1.200000E+04  0.000000E+00  5.000000E+01
 1.400000E+04  0.000000E+00  5.000000E+01
 1.600000E+04  0.000000E+00  5.000000E+01
 1.800000E+04  0.000000E+00  5.000000E+01
 2.000000E+04  0.000000E+00  5.000000E+01
 0.000000E+00  1.000000E+00  5.000000E+01
 2.000000E+03  1.000000E+00  5.000000E+01
 4.000000E+03  1.000000E+00  5.000000E+01
 6.000000E+03  1.000000E+00  5.000000E+01
[...]
CELL_DATA      200
SCALARS Porosity             float 1
LOOKUP_TABLE default
 4.377100E-01  4.377099E-01  4.377099E-01  4.377099E-01  4.377099E-01  4.377099E-01  4.377099E-01  4.377099E-01  4.377099E-01  4.377099E-01
 4.377100E-01  4.377099E-01  4.377099E-01  4.377099E-01  4.377099E-01  4.377099E-01  4.377099E-01  4.377099E-01  4.377099E-01  4.377099E-01
 4.377100E-01  4.377099E-01  4.377099E-01  4.377099E-01  4.377099E-01  4.377099E-01  4.377099E-01  4.377099E-01  4.377099E-01  4.377099E-01
 4.377100E-01  4.377099E-01  4.377099E-01  4.377099E-01  4.377099E-01  4.377099E-01  4.377099E-01  4.377099E-01  4.377099E-01  4.377099E-01
 4.377100E-01  4.377099E-01  4.377099E-01  4.377099E-01  4.377099E-01  4.377099E-01  4.377099E-01  4.377099E-01  4.377099E-01  4.377099E-01
 4.377100E-01  4.377099E-01  4.377099E-01  4.377099E-01  4.377099E-01  4.377099E-01  4.377099E-01  4.377099E-01  4.377099E-01  4.377099E-01
 4.377097E-01  4.377099E-01  4.377099E-01  4.377099E-01  4.377099E-01  4.377099E-01  4.377099E-01  4.377099E-01  4.377099E-01  4.377099E-01
 4.377097E-01  4.377099E-01  4.377099E-01  4.377099E-01  4.377099E-01  4.377099E-01  4.377099E-01  4.377099E-01  4.377099E-01  4.377099E-01
 4.377097E-01  4.377099E-01  4.377099E-01  4.377099E-01  4.377099E-01  4.377099E-01  4.377099E-01  4.377099E-01  4.377099E-01  4.377099E-01
 4.377097E-01  4.377099E-01  4.377099E-01  4.377099E-01  4.377099E-01  4.377099E-01  4.377099E-01  4.377099E-01  4.377099E-01  4.377099E-01
 4.377097E-01  4.377099E-01  4.377099E-01  4.377099E-01  4.377099E-01  4.377099E-01  4.377099E-01  4.377099E-01  4.377099E-01  4.377099E-01
 4.377097E-01  4.377099E-01  4.377099E-01  4.377099E-01  4.377099E-01  4.377099E-01  4.377099E-01  4.377099E-01  4.377099E-01  4.377099E-01
 4.377097E-01  4.377099E-01  4.377099E-01  4.377099E-01  4.377099E-01  4.377099E-01  4.377099E-01  4.377099E-01  4.377099E-01  4.377099E-01
 4.377097E-01  4.377099E-01  4.377099E-01  4.377099E-01  4.377099E-01  4.377099E-01  4.377099E-01  4.377099E-01  4.377099E-01  4.377099E-01
 4.377100E-01  4.377099E-01  4.377099E-01  4.377099E-01  4.377099E-01  4.377099E-01  4.377099E-01  4.377099E-01  4.377099E-01  4.377099E-01
 4.377100E-01  4.377099E-01  4.377099E-01  4.377099E-01  4.377099E-01  4.377099E-01  4.377099E-01  4.377099E-01  4.377099E-01  4.377099E-01
 4.377100E-01  4.377099E-01  4.377099E-01  4.377099E-01  4.377099E-01  4.377099E-01  4.377099E-01  4.377099E-01  4.377099E-01  4.377099E-01
 4.377100E-01  4.377099E-01  4.377099E-01  4.377099E-01  4.377099E-01  4.377099E-01  4.377099E-01  4.377099E-01  4.377099E-01  4.377099E-01
 4.377100E-01  4.377099E-01  4.377099E-01  4.377099E-01  4.377099E-01  4.377099E-01  4.377099E-01  4.377099E-01  4.377099E-01  4.377099E-01
 4.377100E-01  4.377099E-01  4.377099E-01  4.377099E-01  4.377099E-01  4.377099E-01  4.377099E-01  4.377099E-01  4.377099E-01  4.377099E-01


SCALARS Permeability         float 1
LOOKUP_TABLE default
 8.829803E-13  8.829802E-13  8.829802E-13  8.829801E-13  8.829801E-13  8.829801E-13  8.829801E-13  8.829801E-13  8.829801E-13  8.829801E-13
 8.829803E-13  8.829802E-13  8.829802E-13  8.829802E-13  8.829801E-13  8.829801E-13  8.829801E-13  8.829801E-13  8.829801E-13  8.829801E-13
 8.829803E-13  8.829802E-13  8.829802E-13  8.829802E-13  8.829801E-13  8.829801E-13  8.829801E-13  8.829801E-13  8.829801E-13  8.829801E-13
 8.829803E-13  8.829802E-13  8.829802E-13  8.829802E-13  8.829801E-13  8.829801E-13  8.829801E-13  8.829801E-13  8.829801E-13  8.829801E-13
 8.829803E-13  8.829802E-13  8.829802E-13  8.829802E-13  8.829801E-13  8.829801E-13  8.829801E-13  8.829801E-13  8.829801E-13  8.829801E-13
 8.829803E-13  8.829802E-13  8.829802E-13  8.829802E-13  8.829801E-13  8.829801E-13  8.829801E-13  8.829801E-13  8.829801E-13  8.829801E-13
 8.829789E-13  8.829802E-13  8.829802E-13  8.829802E-13  8.829801E-13  8.829801E-13  8.829801E-13  8.829801E-13  8.829801E-13  8.829801E-13
 8.829789E-13  8.829802E-13  8.829802E-13  8.829802E-13  8.829802E-13  8.829801E-13  8.829801E-13  8.829801E-13  8.829801E-13  8.829801E-13
 8.829789E-13  8.829802E-13  8.829802E-13  8.829802E-13  8.829802E-13  8.829801E-13  8.829801E-13  8.829801E-13  8.829801E-13  8.829801E-13
 8.829789E-13  8.829802E-13  8.829802E-13  8.829802E-13  8.829802E-13  8.829801E-13  8.829801E-13  8.829801E-13  8.829801E-13  8.829801E-13
 8.829789E-13  8.829802E-13  8.829802E-13  8.829802E-13  8.829802E-13  8.829802E-13  8.829801E-13  8.829801E-13  8.829801E-13  8.829801E-13
 8.829789E-13  8.829802E-13  8.829802E-13  8.829802E-13  8.829802E-13  8.829802E-13  8.829801E-13  8.829801E-13  8.829801E-13  8.829801E-13
 8.829789E-13  8.829802E-13  8.829802E-13  8.829802E-13  8.829802E-13  8.829802E-13  8.829801E-13  8.829801E-13  8.829801E-13  8.829801E-13
 8.829789E-13  8.829803E-13  8.829802E-13  8.829802E-13  8.829802E-13  8.829802E-13  8.829802E-13  8.829801E-13  8.829801E-13  8.829801E-13
 8.829803E-13  8.829803E-13  8.829802E-13  8.829802E-13  8.829802E-13  8.829802E-13  8.829802E-13  8.829801E-13  8.829801E-13  8.829801E-13
 8.829803E-13  8.829803E-13  8.829802E-13  8.829802E-13  8.829802E-13  8.829802E-13  8.829802E-13  8.829802E-13  8.829801E-13  8.829801E-13
 8.829803E-13  8.829803E-13  8.829802E-13  8.829802E-13  8.829802E-13  8.829802E-13  8.829802E-13  8.829802E-13  8.829801E-13  8.829801E-13
 8.829803E-13  8.829803E-13  8.829802E-13  8.829802E-13  8.829802E-13  8.829802E-13  8.829802E-13  8.829802E-13  8.829802E-13  8.829801E-13
 8.829803E-13  8.829803E-13  8.829802E-13  8.829802E-13  8.829802E-13  8.829802E-13  8.829802E-13  8.829802E-13  8.829802E-13  8.829802E-13
 8.829803E-13  8.829803E-13  8.829802E-13  8.829802E-13  8.829802E-13  8.829802E-13  8.829802E-13  8.829802E-13  8.829802E-13  8.829802E-13


SCALARS Liquid_Pressure      float 1
LOOKUP_TABLE default
 8.379883E+06  8.005072E+06  7.826813E+06  7.717219E+06  7.643405E+06  7.591419E+06  7.553671E+06  7.525403E+06  7.503387E+06  7.485327E+06
 8.334714E+06  7.959907E+06  7.781653E+06  7.672062E+06  7.598250E+06  7.546265E+06  7.508518E+06  7.480250E+06  7.458235E+06  7.440176E+06
 8.289551E+06  7.914744E+06  7.736494E+06  7.626906E+06  7.553096E+06  7.501113E+06  7.463366E+06  7.435099E+06  7.413085E+06  7.395026E+06
 8.244394E+06  7.869582E+06  7.691337E+06  7.581751E+06  7.507943E+06  7.455961E+06  7.418216E+06  7.389949E+06  7.367935E+06  7.349877E+06
 8.199243E+06  7.824422E+06  7.646181E+06  7.536598E+06  7.462792E+06  7.410811E+06  7.373066E+06  7.344801E+06  7.322788E+06  7.304729E+06
 8.154098E+06  7.779262E+06  7.601026E+06  7.491446E+06  7.417641E+06  7.365662E+06  7.327918E+06  7.299654E+06  7.277641E+06  7.259583E+06
 8.108959E+06  7.734104E+06  7.555872E+06  7.446295E+06  7.372492E+06  7.320514E+06  7.282772E+06  7.254508E+06  7.232495E+06  7.214438E+06
 8.063814E+06  7.688947E+06  7.510720E+06  7.401146E+06  7.327345E+06  7.275368E+06  7.237626E+06  7.209363E+06  7.187351E+06  7.169294E+06
 8.018664E+06  7.643792E+06  7.465569E+06  7.355997E+06  7.282198E+06  7.230223E+06  7.192482E+06  7.164220E+06  7.142208E+06  7.124152E+06
 7.973507E+06  7.598638E+06  7.420419E+06  7.310850E+06  7.237053E+06  7.185079E+06  7.147339E+06  7.119077E+06  7.097067E+06  7.079011E+06
 7.928344E+06  7.553485E+06  7.375270E+06  7.265704E+06  7.191909E+06  7.139936E+06  7.102197E+06  7.073936E+06  7.051926E+06  7.033871E+06
 7.883176E+06  7.508333E+06  7.330123E+06  7.220560E+06  7.146766E+06  7.094795E+06  7.057057E+06  7.028797E+06  7.006787E+06  6.988732E+06
 7.838002E+06  7.463182E+06  7.284977E+06  7.175417E+06  7.101625E+06  7.049655E+06  7.011918E+06  6.983658E+06  6.961649E+06  6.943595E+06
 7.792821E+06  7.418033E+06  7.239832E+06  7.130275E+06  7.056485E+06  7.004516E+06  6.966780E+06  6.938521E+06  6.916513E+06  6.898459E+06
 7.747635E+06  7.372885E+06  7.194689E+06  7.085134E+06  7.011346E+06  6.959379E+06  6.921643E+06  6.893385E+06  6.871377E+06  6.853324E+06
 7.702455E+06  7.327738E+06  7.149546E+06  7.039994E+06  6.966208E+06  6.914242E+06  6.876508E+06  6.848251E+06  6.826243E+06  6.808190E+06
 7.657281E+06  7.282593E+06  7.104405E+06  6.994856E+06  6.921072E+06  6.869107E+06  6.831374E+06  6.803117E+06  6.781110E+06  6.763058E+06
 7.612113E+06  7.237448E+06  7.059266E+06  6.949719E+06  6.875937E+06  6.823973E+06  6.786241E+06  6.757985E+06  6.735979E+06  6.717927E+06
 7.566951E+06  7.192305E+06  7.014127E+06  6.904583E+06  6.830803E+06  6.778841E+06  6.741110E+06  6.712854E+06  6.690848E+06  6.672797E+06
 7.521795E+06  7.147164E+06  6.968990E+06  6.859449E+06  6.785670E+06  6.733710E+06  6.695979E+06  6.667725E+06  6.645719E+06  6.627668E+06


SCALARS Temperature          float 1
LOOKUP_TABLE default
 1.500515E+02  1.500294E+02  1.500188E+02  1.500123E+02  1.500080E+02  1.500049E+02  1.500027E+02  1.500010E+02  1.499997E+02  1.499986E+02
 1.500515E+02  1.500294E+02  1.500188E+02  1.500123E+02  1.500080E+02  1.500049E+02  1.500027E+02  1.500010E+02  1.499997E+02  1.499986E+02
 1.500515E+02  1.500294E+02  1.500188E+02  1.500123E+02  1.500080E+02  1.500049E+02  1.500027E+02  1.500010E+02  1.499997E+02  1.499986E+02
 1.500514E+02  1.500294E+02  1.500188E+02  1.500123E+02  1.500080E+02  1.500049E+02  1.500027E+02  1.500010E+02  1.499997E+02  1.499986E+02
 1.500514E+02  1.500294E+02  1.500188E+02  1.500123E+02  1.500080E+02  1.500049E+02  1.500027E+02  1.500010E+02  1.499997E+02  1.499986E+02
 1.500514E+02  1.500294E+02  1.500188E+02  1.500123E+02  1.500080E+02  1.500049E+02  1.500027E+02  1.500010E+02  1.499997E+02  1.499986E+02
 1.500511E+02  1.500294E+02  1.500188E+02  1.500123E+02  1.500080E+02  1.500049E+02  1.500027E+02  1.500010E+02  1.499997E+02  1.499986E+02
 1.500512E+02  1.500295E+02  1.500188E+02  1.500123E+02  1.500080E+02  1.500049E+02  1.500027E+02  1.500010E+02  1.499997E+02  1.499986E+02
 1.500512E+02  1.500295E+02  1.500189E+02  1.500124E+02  1.500080E+02  1.500049E+02  1.500027E+02  1.500010E+02  1.499997E+02  1.499986E+02
 1.500512E+02  1.500295E+02  1.500189E+02  1.500124E+02  1.500080E+02  1.500049E+02  1.500027E+02  1.500010E+02  1.499997E+02  1.499986E+02
 1.500512E+02  1.500295E+02  1.500189E+02  1.500124E+02  1.500080E+02  1.500049E+02  1.500027E+02  1.500010E+02  1.499997E+02  1.499986E+02
 1.500513E+02  1.500295E+02  1.500189E+02  1.500124E+02  1.500080E+02  1.500049E+02  1.500027E+02  1.500010E+02  1.499997E+02  1.499986E+02
 1.500513E+02  1.500295E+02  1.500189E+02  1.500124E+02  1.500080E+02  1.500049E+02  1.500027E+02  1.500010E+02  1.499997E+02  1.499986E+02
 1.500514E+02  1.500295E+02  1.500189E+02  1.500124E+02  1.500080E+02  1.500049E+02  1.500027E+02  1.500010E+02  1.499997E+02  1.499986E+02
 1.500517E+02  1.500295E+02  1.500189E+02  1.500124E+02  1.500080E+02  1.500049E+02  1.500027E+02  1.500010E+02  1.499997E+02  1.499986E+02
 1.500517E+02  1.500295E+02  1.500189E+02  1.500124E+02  1.500080E+02  1.500049E+02  1.500027E+02  1.500010E+02  1.499997E+02  1.499986E+02
 1.500517E+02  1.500295E+02  1.500189E+02  1.500124E+02  1.500080E+02  1.500049E+02  1.500027E+02  1.500010E+02  1.499997E+02  1.499986E+02
 1.500517E+02  1.500295E+02  1.500189E+02  1.500124E+02  1.500080E+02  1.500049E+02  1.500027E+02  1.500010E+02  1.499997E+02  1.499986E+02
 1.500517E+02  1.500295E+02  1.500189E+02  1.500124E+02  1.500080E+02  1.500049E+02  1.500027E+02  1.500010E+02  1.499997E+02  1.499986E+02
 1.500517E+02  1.500295E+02  1.500189E+02  1.500124E+02  1.500080E+02  1.500049E+02  1.500027E+02  1.500010E+02  1.499997E+02  1.499986E+02


SCALARS pH                   float 1
LOOKUP_TABLE default
 6.144546E+00  6.144513E+00  6.144498E+00  6.144488E+00  6.144481E+00  6.144477E+00  6.144474E+00  6.144471E+00  6.144469E+00  6.144468E+00
 6.144546E+00  6.144513E+00  6.144498E+00  6.144488E+00  6.144481E+00  6.144477E+00  6.144474E+00  6.144471E+00  6.144469E+00  6.144468E+00
 6.144546E+00  6.144513E+00  6.144498E+00  6.144488E+00  6.144482E+00  6.144477E+00  6.144474E+00  6.144471E+00  6.144469E+00  6.144468E+00
 6.144546E+00  6.144513E+00  6.144498E+00  6.144488E+00  6.144482E+00  6.144477E+00  6.144474E+00  6.144471E+00  6.144469E+00  6.144468E+00
 6.144546E+00  6.144513E+00  6.144498E+00  6.144488E+00  6.144482E+00  6.144477E+00  6.144474E+00  6.144471E+00  6.144469E+00  6.144468E+00
 6.144546E+00  6.144513E+00  6.144498E+00  6.144488E+00  6.144482E+00  6.144477E+00  6.144474E+00  6.144471E+00  6.144469E+00  6.144468E+00
 6.144556E+00  6.144513E+00  6.144498E+00  6.144488E+00  6.144482E+00  6.144477E+00  6.144474E+00  6.144471E+00  6.144469E+00  6.144468E+00
 6.144556E+00  6.144513E+00  6.144498E+00  6.144488E+00  6.144482E+00  6.144477E+00  6.144474E+00  6.144471E+00  6.144469E+00  6.144468E+00
 6.144556E+00  6.144513E+00  6.144498E+00  6.144488E+00  6.144482E+00  6.144477E+00  6.144474E+00  6.144471E+00  6.144469E+00  6.144468E+00
 6.144556E+00  6.144513E+00  6.144498E+00  6.144488E+00  6.144482E+00  6.144477E+00  6.144474E+00  6.144471E+00  6.144469E+00  6.144468E+00
 6.144556E+00  6.144513E+00  6.144498E+00  6.144488E+00  6.144482E+00  6.144477E+00  6.144474E+00  6.144471E+00  6.144469E+00  6.144468E+00
 6.144556E+00  6.144513E+00  6.144498E+00  6.144488E+00  6.144482E+00  6.144477E+00  6.144474E+00  6.144471E+00  6.144469E+00  6.144468E+00
 6.144556E+00  6.144513E+00  6.144498E+00  6.144488E+00  6.144482E+00  6.144477E+00  6.144474E+00  6.144471E+00  6.144469E+00  6.144468E+00
 6.144556E+00  6.144513E+00  6.144498E+00  6.144488E+00  6.144482E+00  6.144477E+00  6.144474E+00  6.144471E+00  6.144469E+00  6.144468E+00
 6.144546E+00  6.144513E+00  6.144498E+00  6.144488E+00  6.144482E+00  6.144477E+00  6.144474E+00  6.144471E+00  6.144469E+00  6.144468E+00
 6.144546E+00  6.144513E+00  6.144498E+00  6.144488E+00  6.144482E+00  6.144477E+00  6.144474E+00  6.144471E+00  6.144469E+00  6.144468E+00
 6.144546E+00  6.144513E+00  6.144498E+00  6.144488E+00  6.144482E+00  6.144477E+00  6.144474E+00  6.144471E+00  6.144469E+00  6.144468E+00
 6.144546E+00  6.144513E+00  6.144498E+00  6.144488E+00  6.144482E+00  6.144477E+00  6.144474E+00  6.144471E+00  6.144469E+00  6.144468E+00
 6.144546E+00  6.144513E+00  6.144498E+00  6.144488E+00  6.144482E+00  6.144477E+00  6.144474E+00  6.144471E+00  6.144469E+00  6.144468E+00
 6.144546E+00  6.144513E+00  6.144498E+00  6.144488E+00  6.144482E+00  6.144477E+00  6.144474E+00  6.144471E+00  6.144469E+00  6.144468E+00


SCALARS Total_H+             float 1
LOOKUP_TABLE default
-3.032078E-03 -3.032823E-03 -3.033182E-03 -3.033405E-03 -3.033555E-03 -3.033662E-03 -3.033739E-03 -3.033797E-03 -3.033842E-03 -3.033878E-03
-3.032078E-03 -3.032822E-03 -3.033182E-03 -3.033404E-03 -3.033554E-03 -3.033661E-03 -3.033738E-03 -3.033796E-03 -3.033841E-03 -3.033877E-03
-3.032077E-03 -3.032821E-03 -3.033181E-03 -3.033403E-03 -3.033554E-03 -3.033660E-03 -3.033738E-03 -3.033795E-03 -3.033840E-03 -3.033876E-03
-3.032077E-03 -3.032820E-03 -3.033180E-03 -3.033402E-03 -3.033553E-03 -3.033659E-03 -3.033737E-03 -3.033795E-03 -3.033839E-03 -3.033876E-03
-3.032077E-03 -3.032819E-03 -3.033179E-03 -3.033402E-03 -3.033552E-03 -3.033659E-03 -3.033736E-03 -3.033794E-03 -3.033839E-03 -3.033875E-03
-3.032077E-03 -3.032818E-03 -3.033178E-03 -3.033401E-03 -3.033551E-03 -3.033658E-03 -3.033735E-03 -3.033793E-03 -3.033838E-03 -3.033874E-03
-3.032141E-03 -3.032818E-03 -3.033178E-03 -3.033400E-03 -3.033551E-03 -3.033657E-03 -3.033735E-03 -3.033793E-03 -3.033837E-03 -3.033873E-03
-3.032140E-03 -3.032817E-03 -3.033177E-03 -3.033399E-03 -3.033550E-03 -3.033656E-03 -3.033734E-03 -3.033792E-03 -3.033837E-03 -3.033873E-03
-3.032139E-03 -3.032816E-03 -3.033176E-03 -3.033399E-03 -3.033549E-03 -3.033656E-03 -3.033733E-03 -3.033791E-03 -3.033836E-03 -3.033872E-03
-3.032138E-03 -3.032815E-03 -3.033175E-03 -3.033398E-03 -3.033548E-03 -3.033655E-03 -3.033732E-03 -3.033790E-03 -3.033835E-03 -3.033871E-03
-3.032137E-03 -3.032814E-03 -3.033174E-03 -3.033397E-03 -3.033548E-03 -3.033654E-03 -3.033732E-03 -3.033790E-03 -3.033834E-03 -3.033871E-03
-3.032136E-03 -3.032813E-03 -3.033174E-03 -3.033396E-03 -3.033547E-03 -3.033654E-03 -3.033731E-03 -3.033789E-03 -3.033834E-03 -3.033870E-03
-3.032134E-03 -3.032813E-03 -3.033173E-03 -3.033395E-03 -3.033546E-03 -3.033653E-03 -3.033730E-03 -3.033788E-03 -3.033833E-03 -3.033869E-03
-3.032133E-03 -3.032812E-03 -3.033172E-03 -3.033395E-03 -3.033545E-03 -3.033652E-03 -3.033730E-03 -3.033788E-03 -3.033832E-03 -3.033868E-03
-3.032061E-03 -3.032811E-03 -3.033171E-03 -3.033394E-03 -3.033545E-03 -3.033651E-03 -3.033729E-03 -3.033787E-03 -3.033832E-03 -3.033868E-03
-3.032060E-03 -3.032810E-03 -3.033171E-03 -3.033393E-03 -3.033544E-03 -3.033651E-03 -3.033728E-03 -3.033786E-03 -3.033831E-03 -3.033867E-03
-3.032060E-03 -3.032809E-03 -3.033170E-03 -3.033392E-03 -3.033543E-03 -3.033650E-03 -3.033727E-03 -3.033785E-03 -3.033830E-03 -3.033866E-03
-3.032060E-03 -3.032808E-03 -3.033169E-03 -3.033392E-03 -3.033542E-03 -3.033649E-03 -3.033727E-03 -3.033785E-03 -3.033829E-03 -3.033866E-03
-3.032059E-03 -3.032808E-03 -3.033168E-03 -3.033391E-03 -3.033542E-03 -3.033648E-03 -3.033726E-03 -3.033784E-03 -3.033829E-03 -3.033865E-03
-3.032059E-03 -3.032807E-03 -3.033167E-03 -3.033390E-03 -3.033541E-03 -3.033648E-03 -3.033725E-03 -3.033783E-03 -3.033828E-03 -3.033864E-03


SCALARS Total_SiO2(aq)       float 1
LOOKUP_TABLE default
 1.039648E-02  1.039459E-02  1.039368E-02  1.039312E-02  1.039275E-02  1.039248E-02  1.039229E-02  1.039215E-02  1.039204E-02  1.039194E-02
 1.039648E-02  1.039459E-02  1.039368E-02  1.039312E-02  1.039275E-02  1.039248E-02  1.039229E-02  1.039215E-02  1.039204E-02  1.039194E-02
 1.039648E-02  1.039459E-02  1.039368E-02  1.039312E-02  1.039275E-02  1.039248E-02  1.039229E-02  1.039215E-02  1.039204E-02  1.039194E-02
 1.039648E-02  1.039459E-02  1.039368E-02  1.039312E-02  1.039275E-02  1.039248E-02  1.039229E-02  1.039215E-02  1.039204E-02  1.039194E-02
 1.039648E-02  1.039459E-02  1.039368E-02  1.039312E-02  1.039275E-02  1.039248E-02  1.039229E-02  1.039215E-02  1.039204E-02  1.039194E-02
 1.039648E-02  1.039459E-02  1.039368E-02  1.039312E-02  1.039275E-02  1.039248E-02  1.039229E-02  1.039215E-02  1.039204E-02  1.039194E-02
 1.039669E-02  1.039459E-02  1.039368E-02  1.039312E-02  1.039275E-02  1.039248E-02  1.039229E-02  1.039215E-02  1.039204E-02  1.039194E-02
 1.039669E-02  1.039459E-02  1.039368E-02  1.039312E-02  1.039275E-02  1.039248E-02  1.039229E-02  1.039215E-02  1.039204E-02  1.039194E-02
 1.039669E-02  1.039459E-02  1.039368E-02  1.039312E-02  1.039275E-02  1.039248E-02  1.039229E-02  1.039215E-02  1.039204E-02  1.039194E-02
 1.039669E-02  1.039459E-02  1.039368E-02  1.039312E-02  1.039275E-02  1.039248E-02  1.039229E-02  1.039215E-02  1.039204E-02  1.039194E-02
 1.039670E-02  1.039459E-02  1.039368E-02  1.039312E-02  1.039275E-02  1.039248E-02  1.039229E-02  1.039215E-02  1.039204E-02  1.039194E-02
 1.039670E-02  1.039459E-02  1.039368E-02  1.039312E-02  1.039275E-02  1.039248E-02  1.039229E-02  1.039215E-02  1.039204E-02  1.039194E-02
 1.039670E-02  1.039459E-02  1.039368E-02  1.039312E-02  1.039275E-02  1.039248E-02  1.039229E-02  1.039215E-02  1.039204E-02  1.039194E-02
 1.039670E-02  1.039459E-02  1.039368E-02  1.039312E-02  1.039275E-02  1.039248E-02  1.039229E-02  1.039215E-02  1.039204E-02  1.039194E-02
 1.039650E-02  1.039459E-02  1.039368E-02  1.039312E-02  1.039275E-02  1.039248E-02  1.039229E-02  1.039215E-02  1.039204E-02  1.039194E-02
 1.039650E-02  1.039459E-02  1.039368E-02  1.039312E-02  1.039275E-02  1.039248E-02  1.039229E-02  1.039215E-02  1.039204E-02  1.039194E-02
 1.039650E-02  1.039459E-02  1.039368E-02  1.039312E-02  1.039275E-02  1.039248E-02  1.039229E-02  1.039215E-02  1.039204E-02  1.039194E-02
 1.039650E-02  1.039460E-02  1.039368E-02  1.039312E-02  1.039275E-02  1.039248E-02  1.039229E-02  1.039215E-02  1.039204E-02  1.039194E-02
 1.039650E-02  1.039460E-02  1.039368E-02  1.039312E-02  1.039275E-02  1.039248E-02  1.039229E-02  1.039215E-02  1.039204E-02  1.039194E-02