# vtk DataFile Version 2.0
PFLOTRAN output
ASCII
DATASET UNSTRUCTURED_GRID
POINTS          462 float
 0.000000E+00  0.000000E+00  0.000000E+00
 1.000000E+01  0.000000E+00  0.000000E+00
 2.000000E+01  0.000000E+00  0.000000E+00
 3.000000E+01  0.000000E+00  0.000000E+00
 4.000000E+01  0.000000E+00  0.000000E+00
 5.000000E+01  0.000000E+00  0.000000E+00
 6.000000E+01  0.000000E+00  0.000000E+00
 7.000000E+01  0.000000E+00  0.000000E+00
 8.000000E+01  0.000000E+00  0.000000E+00
 9.000000E+01  0.000000E+00  0.000000E+00
 1.000000E+02  0.000000E+00  0.000000E+00
 0.000000E+00  1.000000E+00  0.000000E+00
 1.000000E+01  1.000000E+00  0.000000E+00
 2.000000E+01  1.000000E+00  0.000000E+00
 3.000000E+01  1.000000E+00  0.000000E+00
 4.000000E+01  1.000000E+00  0.000000E+00
 5.000000E+01  1.000000E+00  0.000000E+00
 6.000000E+01  1.000000E+00  0.000000E+00
 7.000000E+01  1.000000E+00  0.000000E+00
 8.000000E+01  1.000000E+00  0.000000E+00
 9.000000E+01  1.000000E+00  0.000000E+00
 1.000000E+02  1.000000E+00  0.000000E+00
 0.000000E+00  0.000000E+00  5.000000E+00
 1.000000E+01  0.000000E+00  5.000000E+00
 2.000000E+01  0.000000E+00  5.000000E+00
 3.000000E+01  0.000000E+00  5.000000E+00
 4.000000E+01  0.000000E+00  5.000000E+00
 5.000000E+01  0.000000E+00  5.000000E+00
 6.000000E+01  0.000000E+00  5.000000E+00
 7.000000E+01  0.000000E+00  5.000000E+00
 8.000000E+01  0.000000E+00  5.000000E+00
 9.000000E+01  0.000000E+00  5.000000E+00
 1.000000E+02  0.000000E+00  5.000000E+00
 0.000000E+00  1.000000E+00  5.000000E+00
 1.000000E+01  1.000000E+00  5.000000E+00
 2.000000E+01  1.000000E+00  5.000000E+00
 3.000000E+01  1.000000E+00  5.000000E+00
 4.000000E+01  1.000000E+00  5.000000E+00
 5.000000E+01  1.000000E+00  5.000000E+00
 6.000000E+01  1.000000E+00  5.000000E+00
 7.000000E+01  1.000000E+00  5.000000E+00
 8.000000E+01  1.000000E+00  5.000000E+00
 9.000000E+01  1.000000E+00  5.000000E+00
 1.000000E+02  1.000000E+00  5.000000E+00
 0.000000E+00  0.000000E+00  1.000000E+01
 1.000000E+01  0.000000E+00  1.000000E+01
 2.000000E+01  0.000000E+00  1.000000E+01
 3.000000E+01  0.000000E+00  1.000000E+01
 4.000000E+01  0.000000E+00  1.000000E+01
 5.000000E+01  0.000000E+00  1.000000E+01
 6.000000E+01  0.000000E+00  1.000000E+01
 7.000000E+01  0.000000E+00  1.000000E+01
 8.000000E+01  0.000000E+00  1.000000E+01
 9.000000E+01  0.000000E+00  1.000000E+01
 1.000000E+02  0.000000E+00  1.000000E+01
 0.000000E+00  1.000000E+00  1.000000E+01
 1.000000E+01  1.000000E+00  1.000000E+01
 2.000000E+01  1.000000E+00  1.000000E+01
 3.000000E+01  1.000000E+00  1.000000E+01
 4.000000E+01  1.000000E+00  1.000000E+01
 5.000000E+01  1.000000E+00  1.000000E+01
 6.000000E+01  1.000000E+00  1.000000E+01
 7.000000E+01  1.000000E+00  1.000000E+01
 8.000000E+01  1.000000E+00  1.000000E+01
 9.000000E+01  1.000000E+00  1.000000E+01
 1.000000E+02  1.000000E+00  1.000000E+01
 0.000000E+00  0.000000E+00  1.500000E+01
 1.000000E+01  0.000000E+00  1.500000E+01
 2.000000E+01  0.000000E+00  1.500000E+01
 3.000000E+01  0.000000E+00  1.500000E+01
 4.000000E+01  0.000000E+00  1.500000E+01
 5.000000E+01  0.000000E+00  1.500000E+01
 6.000000E+01  0.000000E+00  1.500000E+01
 7.000000E+01  0.000000E+00  1.500000E+01
 8.000000E+01  0.000000E+00  1.500000E+01
 9.000000E+01  0.000000E+00  1.500000E+01
 1.000000E+02  0.000000E+00  1.500000E+01
 0.000000E+00  1.000000E+00  1.500000E+01
 1.000000E+01  1.000000E+00  1.500000E+01
 2.000000E+01  1.000000E+00  1.500000E+01
 3.000000E+01  1.000000E+00  1.500000E+01
 4.000000E+01  1.000000E+00  1.500000E+01
 5.000000E+01  1.000000E+00  1.500000E+01
 6.000000E+01  1.000000E+00  1.500000E+01
 7.000000E+01  1.000000E+00  1.500000E+01
 8.000000E+01  1.000000E+00  1.500000E+01
 9.000000E+01  1.000000E+00  1.500000E+01
 1.000000E+02  1.000000E+00  1.500000E+01
 0.000000E+00  0.000000E+00  2.000000E+01
 1.000000E+01  0.000000E+00  2.000000E+01
 2.000000E+01  0.000000E+00  2.000000E+01
 3.000000E+01  0.000000E+00  2.000000E+01
 4.000000E+01  0.000000E+00  2.000000E+01
 5.000000E+01  0.000000E+00  2.000000E+01
 6.000000E+01  0.000000E+00  2.000000E+01
 7.000000E+01  0.000000E+00  2.000000E+01
 8.000000E+01  0.000000E+00  2.000000E+01
 9.000000E+01  0.000000E+00  2.000000E+01
 1.000000E+02  0.000000E+00  2.000000E+01
 0.000000E+00  1.000000E+00  2.000000E+01
 1.000000E+01  1.000000E+00  2.000000E+01
 2.000000E+01  1.000000E+00  2.000000E+01
 3.000000E+01  1.000000E+00  2.000000E+01
 4.000000E+01  1.000000E+00  2.000000E+01
 5.000000E+01  1.000000E+00  2.000000E+01
 6.000000E+01  1.000000E+00  2.000000E+01
 7.000000E+01  1.000000E+00  2.000000E+01
 8.000000E+01  1.000000E+00  2.000000E+01
 9.000000E+01  1.000000E+00  2.000000E+01
 1.000000E+02  1.000000E+00  2.000000E+01
 0.000000E+00  0.000000E+00  2.500000E+01
 1.000000E+01  0.000000E+00  2.500000E+01
 2.000000E+01  0.000000E+00  2.500000E+01
 3.000000E+01  0.000000E+00  2.500000E+01
 4.000000E+01  0.000000E+00  2.500000E+01
 5.000000E+01  0.000000E+00  2.500000E+01
 6.000000E+01  0.000000E+00  2.500000E+01
 7.000000E+01  0.000000E+00  2.500000E+01
 8.000000E+01  0.000000E+00  2.500000E+01
 9.000000E+01  0.000000E+00  2.500000E+01
 1.000000E+02  0.000000E+00  2.500000E+01
 0.000000E+00  1.000000E+00  2.500000E+01
 1.000000E+01  1.000000E+00  2.500000E+01
 2.000000E+01  1.000000E+00  2.500000E+01
 3.000000E+01  1.000000E+00  2.500000E+01
 4.000000E+01  1.000000E+00  2.500000E+01
 5.000000E+01  1.000000E+00  2.500000E+01
 6.000000E+01  1.000000E+00  2.500000E+01
 7.000000E+01  1.000000E+00  2.500000E+01
 8.000000E+01  1.000000E+00  2.500000E+01
 9.000000E+01  1.000000E+00  2.500000E+01
 1.000000E+02  1.000000E+00  2.500000E+01
 0.000000E+00  0.000000E+00  3.000000E+01
 1.000000E+01  0.000000E+00  3.000000E+01
 2.000000E+01  0.000000E+00  3.000000E+01
 3.000000E+01  0.000000E+00  3.000000E+01
 4.000000E+01  0.000000E+00  3.000000E+01
 5.000000E+01  0.000000E+00  3.000000E+01
 6.000000E+01  0.000000E+00  3.000000E+01
 7.000000E+01  0.000000E+00  3.000000E+01
 8.000000E+01  0.000000E+00  3.000000E+01
 9.000000E+01  0.000000E+00  3.000000E+01
 1.000000E+02  0.000000E+00  3.000000E+01
 0.000000E+00  1.000000E+00  3.000000E+01
 1.000000E+01  1.000000E+00  3.000000E+01
 2.000000E+01  1.000000E+00  3.000000E+01
 3.000000E+01  1.000000E+00  3.000000E+01
 4.000000E+01  1.000000E+00  3.000000E+01
 5.000000E+01  1.000000E+00  3.000000E+01
 6.000000E+01  1.000000E+00  3.000000E+01
 7.000000E+01  1.000000E+00  3.000000E+01
 8.000000E+01  1.000000E+00  3.000000E+01
 9.000000E+01  1.000000E+00  3.000000E+01
 1.000000E+02  1.000000E+00  3.000000E+01
 0.000000E+00  0.000000E+00  3.500000E+01
 1.000000E+01  0.000000E+00  3.500000E+01
 2.000000E+01  0.000000E+00  3.500000E+01
 3.000000E+01  0.000000E+00  3.500000E+01
 4.000000E+01  0.000000E+00  3.500000E+01
 5.000000E+01  0.000000E+00  3.500000E+01
 6.000000E+01  0.000000E+00  3.500000E+01
 7.000000E+01  0.000000E+00  3.500000E+01
 8.000000E+01  0.000000E+00  3.500000E+01
 9.000000E+01  0.000000E+00  3.500000E+01
 1.000000E+02  0.000000E+00  3.500000E+01
 0.000000E+00  1.000000E+00  3.500000E+01
 1.000000E+01  1.000000E+00  3.500000E+01
 2.000000E+01  1.000000E+00  3.500000E+01
 3.000000E+01  1.000000E+00  3.500000E+01
 4.000000E+01  1.000000E+00  3.500000E+01
 5.000000E+01  1.000000E+00  3.500000E+01
 6.000000E+01  1.000000E+00  3.500000E+01
 7.000000E+01  1.000000E+00  3.500000E+01
 8.000000E+01  1.000000E+00  3.500000E+01
 9.000000E+01  1.000000E+00  3.500000E+01
 1.000000E+02  1.000000E+00  3.500000E+01
 0.000000E+00  0.000000E+00  4.000000E+01
 1.000000E+01  0.000000E+00  4.000000E+01
 2.000000E+01  0.000000E+00  4.000000E+01
 3.000000E+01  0.000000E+00  4.000000E+01
 4.000000E+01  0.000000E+00  4.000000E+01
 5.000000E+01  0.000000E+00  4.000000E+01
 6.000000E+01  0.000000E+00  4.000000E+01
 7.000000E+01  0.000000E+00  4.000000E+01
 8.000000E+01  0.000000E+00  4.000000E+01
 9.000000E+01  0.000000E+00  4.000000E+01
 1.000000E+02  0.000000E+00  4.000000E+01
 0.000000E+00  1.000000E+00  4.000000E+01
 1.000000E+01  1.000000E+00  4.000000E+01
 2.000000E+01  1.000000E+00  4.000000E+01
 3.000000E+01  1.000000E+00  4.000000E+01
 4.000000E+01  1.000000E+00  4.000000E+01
 5.000000E+01  1.000000E+00  4.000000E+01
 6.000000E+01  1.000000E+00  4.000000E+01
 7.000000E+01  1.000000E+00  4.000000E+01
 8.000000E+01  1.000000E+00  4.000000E+01
 9.000000E+01  1.000000E+00  4.000000E+01
 1.000000E+02  1.000000E+00  4.000000E+01
 0.000000E+00  0.000000E+00  4.500000E+01
 1.000000E+01  0.000000E+00  4.500000E+01
 2.000000E+01  0.000000E+00  4.500000E+01
 3.000000E+01  0.000000E+00  4.500000E+01
 4.000000E+01  0.000000E+00  4.500000E+01
 5.000000E+01  0.000000E+00  4.500000E+01
 6.000000E+01  0.000000E+00  4.500000E+01
 7.000000E+01  0.000000E+00  4.500000E+01
 8.000000E+01  0.000000E+00  4.500000E+01
 9.000000E+01  0.000000E+00  4.500000E+01
 1.000000E+02  0.000000E+00  4.500000E+01
 0.000000E+00  1.000000E+00  4.500000E+01
 1.000000E+01  1.000000E+00  4.500000E+01
 2.000000E+01  1.000000E+00  4.500000E+01
 3.000000E+01  1.000000E+00  4.500000E+01
 4.000000E+01  1.000000E+00  4.500000E+01
 5.000000E+01  1.000000E+00  4.500000E+01
 6.000000E+01  1.000000E+00  4.500000E+01
 7.000000E+01  1.000000E+00  4.500000E+01
 8.000000E+01  1.000000E+00  4.500000E+01
 9.000000E+01  1.000000E+00  4.500000E+01
 1.000000E+02  1.000000E+00  4.500000E+01
 0.000000E+00  0.000000E+00  5.000000E+01
 1.000000E+01  0.000000E+00  5.000000E+01
 2.000000E+01  0.000000E+00  5.000000E+01
 3.000000E+01  0.000000E+00  5.000000E+01
 4.000000E+01  0.000000E+00  5.000000E+01
 5.000000E+01  0.000000E+00  5.000000E+01
 6.000000E+01  0.000000E+00  5.000000E+01
 7.000000E+01  0.000000E+00  5.000000E+01
 8.000000E+01  0.000000E+00  5.000000E+01
 9.000000E+01  0.000000E+00  5.000000E+01
 1.000000E+02  0.000000E+00  5.000000E+01
 0.000000E+00  1.000000E+00  5.000000E+01
 1.000000E+01  1.000000E+00  5.000000E+01
 2.000000E+01  1.000000E+00  5.000000E+01
 3.000000E+01  1.000000E+00  5.000000E+01
[...]
CELL_DATA      200
SCALARS Porosity             float 1
LOOKUP_TABLE default
 4.377040E-01  4.377091E-01  4.377099E-01  4.377100E-01  4.377100E-01  4.377099E-01  4.377099E-01  4.377099E-01  4.377099E-01  4.377099E-01
 4.376557E-01  4.377013E-01  4.377089E-01  4.377098E-01  4.377099E-01  4.377099E-01  4.377099E-01  4.377099E-01  4.377099E-01  4.377099E-01
 4.374520E-01  4.376622E-01  4.377032E-01  4.377092E-01  4.377099E-01  4.377099E-01  4.377099E-01  4.377099E-01  4.377099E-01  4.377099E-01
 4.369031E-01  4.375304E-01  4.376813E-01  4.377065E-01  4.377096E-01  4.377099E-01  4.377099E-01  4.377099E-01  4.377099E-01  4.377099E-01
 4.360177E-01  4.372127E-01  4.376189E-01  4.376978E-01  4.377087E-01  4.377098E-01  4.377099E-01  4.377099E-01  4.377099E-01  4.377098E-01
 4.360476E-01  4.366953E-01  4.374882E-01  4.376777E-01  4.377064E-01  4.377096E-01  4.377099E-01  4.377099E-01  4.377099E-01  4.377098E-01
 4.396945E-01  4.363823E-01  4.373069E-01  4.376457E-01  4.377025E-01  4.377093E-01  4.377098E-01  4.377099E-01  4.377099E-01  4.377098E-01
 4.396959E-01  4.362907E-01  4.372152E-01  4.376241E-01  4.376995E-01  4.377089E-01  4.377098E-01  4.377099E-01  4.377099E-01  4.377098E-01
 4.396968E-01  4.362528E-01  4.371620E-01  4.376095E-01  4.376972E-01  4.377087E-01  4.377098E-01  4.377099E-01  4.377099E-01  4.377098E-01
 4.396971E-01  4.362375E-01  4.371373E-01  4.376020E-01  4.376960E-01  4.377086E-01  4.377098E-01  4.377099E-01  4.377099E-01  4.377098E-01
 4.396967E-01  4.362374E-01  4.371373E-01  4.376020E-01  4.376960E-01  4.377086E-01  4.377098E-01  4.377099E-01  4.377099E-01  4.377098E-01
 4.396956E-01  4.362525E-01  4.371621E-01  4.376096E-01  4.376973E-01  4.377087E-01  4.377098E-01  4.377099E-01  4.377099E-01  4.377098E-01
 4.396940E-01  4.362903E-01  4.372152E-01  4.376242E-01  4.376995E-01  4.377090E-01  4.377098E-01  4.377099E-01  4.377099E-01  4.377098E-01
 4.396920E-01  4.363819E-01  4.373070E-01  4.376458E-01  4.377026E-01  4.377093E-01  4.377099E-01  4.377099E-01  4.377099E-01  4.377098E-01
 4.360462E-01  4.366955E-01  4.374884E-01  4.376779E-01  4.377065E-01  4.377096E-01  4.377099E-01  4.377099E-01  4.377099E-01  4.377098E-01
 4.360178E-01  4.372132E-01  4.376192E-01  4.376980E-01  4.377088E-01  4.377098E-01  4.377099E-01  4.377099E-01  4.377099E-01  4.377098E-01
 4.369037E-01  4.375309E-01  4.376815E-01  4.377066E-01  4.377097E-01  4.377099E-01  4.377099E-01  4.377099E-01  4.377099E-01  4.377098E-01
 4.374526E-01  4.376626E-01  4.377034E-01  4.377093E-01  4.377099E-01  4.377099E-01  4.377099E-01  4.377099E-01  4.377099E-01  4.377099E-01
 4.376561E-01  4.377015E-01  4.377089E-01  4.377099E-01  4.377099E-01  4.377099E-01  4.377099E-01  4.377099E-01  4.377099E-01  4.377099E-01
 4.377041E-01  4.377092E-01  4.377099E-01  4.377100E-01  4.377099E-01  4.377099E-01  4.377099E-01  4.377099E-01  4.377099E-01  4.377099E-01


SCALARS Permeability         float 1
LOOKUP_TABLE default
 8.829503E-13  8.829761E-13  8.829799E-13  8.829804E-13  8.829803E-13  8.829802E-13  8.829802E-13  8.829801E-13  8.829801E-13  8.829800E-13
 8.827063E-13  8.829366E-13  8.829747E-13  8.829798E-13  8.829802E-13  8.829802E-13  8.829801E-13  8.829801E-13  8.829801E-13  8.829799E-13
 8.816770E-13  8.827391E-13  8.829462E-13  8.829765E-13  8.829799E-13  8.829801E-13  8.829801E-13  8.829800E-13  8.829800E-13  8.829799E-13
 8.789073E-13  8.820731E-13  8.828354E-13  8.829627E-13  8.829786E-13  8.829800E-13  8.829800E-13  8.829800E-13  8.829800E-13  8.829798E-13
 8.744513E-13  8.804691E-13  8.825202E-13  8.829191E-13  8.829739E-13  8.829796E-13  8.829800E-13  8.829800E-13  8.829799E-13  8.829798E-13
 8.746013E-13  8.778603E-13  8.818597E-13  8.828175E-13  8.829624E-13  8.829786E-13  8.829799E-13  8.829799E-13  8.829799E-13  8.829797E-13
 8.930460E-13  8.762849E-13  8.809441E-13  8.826553E-13  8.829427E-13  8.829767E-13  8.829797E-13  8.829799E-13  8.829799E-13  8.829797E-13
 8.930529E-13  8.758240E-13  8.804814E-13  8.825466E-13  8.829274E-13  8.829752E-13  8.829796E-13  8.829799E-13  8.829798E-13  8.829796E-13
 8.930576E-13  8.756331E-13  8.802134E-13  8.824726E-13  8.829160E-13  8.829740E-13  8.829795E-13  8.829798E-13  8.829798E-13  8.829796E-13
 8.930589E-13  8.755562E-13  8.800885E-13  8.824347E-13  8.829098E-13  8.829733E-13  8.829795E-13  8.829798E-13  8.829798E-13  8.829795E-13
 8.930569E-13  8.755555E-13  8.800885E-13  8.824348E-13  8.829099E-13  8.829733E-13  8.829795E-13  8.829798E-13  8.829798E-13  8.829795E-13
 8.930517E-13  8.756315E-13  8.802136E-13  8.824729E-13  8.829162E-13  8.829740E-13  8.829795E-13  8.829798E-13  8.829798E-13  8.829795E-13
 8.930433E-13  8.758217E-13  8.804818E-13  8.825471E-13  8.829276E-13  8.829753E-13  8.829796E-13  8.829799E-13  8.829798E-13  8.829796E-13
 8.930334E-13  8.762827E-13  8.809449E-13  8.826560E-13  8.829430E-13  8.829769E-13  8.829798E-13  8.829799E-13  8.829799E-13  8.829796E-13
 8.745947E-13  8.778612E-13  8.818610E-13  8.828182E-13  8.829627E-13  8.829787E-13  8.829799E-13  8.829799E-13  8.829799E-13  8.829796E-13
 8.744520E-13  8.804715E-13  8.825217E-13  8.829198E-13  8.829742E-13  8.829797E-13  8.829800E-13  8.829799E-13  8.829799E-13  8.829797E-13
 8.789107E-13  8.820756E-13  8.828367E-13  8.829633E-13  8.829788E-13  8.829801E-13  8.829800E-13  8.829799E-13  8.829799E-13  8.829797E-13
 8.816800E-13  8.827409E-13  8.829471E-13  8.829769E-13  8.829800E-13  8.829801E-13  8.829800E-13  8.829799E-13  8.829800E-13  8.829798E-13
 8.827081E-13  8.829376E-13  8.829752E-13  8.829799E-13  8.829802E-13  8.829801E-13  8.829800E-13  8.829800E-13  8.829800E-13  8.829799E-13
 8.829509E-13  8.829763E-13  8.829800E-13  8.829803E-13  8.829802E-13  8.829801E-13  8.829800E-13  8.829800E-13  8.829801E-13  8.829800E-13


SCALARS Liquid_Pressure      float 1
LOOKUP_TABLE default
 8.009779E+06  7.964850E+06  7.898036E+06  7.825697E+06  7.756045E+06  7.692197E+06  7.634793E+06  7.583450E+06  7.537462E+06  7.496101E+06
 7.987084E+06  7.934473E+06  7.861218E+06  7.784943E+06  7.713151E+06  7.648193E+06  7.590220E+06  7.538585E+06  7.492441E+06  7.450987E+06
 7.990729E+06  7.919752E+06  7.832634E+06  7.748358E+06  7.672350E+06  7.605238E+06  7.546173E+06  7.493978E+06  7.447536E+06  7.405905E+06
 8.030048E+06  7.922274E+06  7.811915E+06  7.715435E+06  7.633303E+06  7.563142E+06  7.502550E+06  7.449578E+06  7.402725E+06  7.360850E+06
 8.123852E+06  7.943751E+06  7.798090E+06  7.685310E+06  7.595498E+06  7.521629E+06  7.459209E+06  7.405315E+06  7.357974E+06  7.315812E+06
 8.308404E+06  7.984123E+06  7.789033E+06  7.656690E+06  7.558258E+06  7.480354E+06  7.415976E+06  7.361101E+06  7.313246E+06  7.270781E+06
 8.651529E+06  8.035970E+06  7.780815E+06  7.627861E+06  7.520791E+06  7.438936E+06  7.372663E+06  7.316847E+06  7.268500E+06  7.225746E+06
 8.823781E+06  8.069745E+06  7.767680E+06  7.596896E+06  7.482278E+06  7.396992E+06  7.329087E+06  7.272465E+06  7.223697E+06  7.180696E+06
 8.897552E+06  8.077768E+06  7.745629E+06  7.562143E+06  7.441996E+06  7.354190E+06  7.285089E+06  7.227877E+06  7.178803E+06  7.135622E+06
 8.905285E+06  8.059015E+06  7.712479E+06  7.522472E+06  7.399420E+06  7.310283E+06  7.240551E+06  7.183028E+06  7.133793E+06  7.090517E+06
 8.860066E+06  8.013839E+06  7.667319E+06  7.477321E+06  7.354274E+06  7.265140E+06  7.195410E+06  7.137889E+06  7.088654E+06  7.045378E+06
 8.761901E+06  7.942241E+06  7.610150E+06  7.426690E+06  7.306559E+06  7.218763E+06  7.149667E+06  7.092459E+06  7.043386E+06  7.000204E+06
 8.597723E+06  7.843878E+06  7.541887E+06  7.371142E+06  7.256549E+06  7.171280E+06  7.103385E+06  7.046768E+06  6.998003E+06  6.955000E+06
 8.335118E+06  7.719779E+06  7.464714E+06  7.311811E+06  7.204773E+06  7.122939E+06  7.056681E+06  7.000873E+06  6.952528E+06  6.909771E+06
 7.901754E+06  7.577632E+06  7.382632E+06  7.250346E+06  7.151953E+06  7.074075E+06  7.009714E+06  6.954849E+06  6.906997E+06  6.864528E+06
 7.626966E+06  7.446977E+06  7.301398E+06  7.188677E+06  7.098907E+06  7.025068E+06  6.962668E+06  6.908785E+06  6.861448E+06  6.819281E+06
 7.442919E+06  7.335224E+06  7.224937E+06  7.128516E+06  7.046429E+06  6.976301E+06  6.915732E+06  6.862773E+06  6.815922E+06  6.774041E+06
 7.313346E+06  7.242427E+06  7.155374E+06  7.071156E+06  6.995195E+06  6.928118E+06  6.869078E+06  6.816897E+06  6.770458E+06  6.728819E+06
 7.219435E+06  7.166871E+06  7.093676E+06  7.017459E+06  6.945716E+06  6.880796E+06  6.822851E+06  6.771231E+06  6.725089E+06  6.683624E+06
 7.151851E+06  7.106965E+06  7.040210E+06  6.967931E+06  6.898331E+06  6.834525E+06  6.777150E+06  6.725823E+06  6.679837E+06  6.638463E+06


SCALARS Temperature          float 1
LOOKUP_TABLE default
 1.500984E+02  1.501064E+02  1.501169E+02  1.501274E+02  1.501358E+02  1.501393E+02  1.501348E+02  1.501216E+02  1.501021E+02  1.500806E+02
 1.501018E+02  1.501116E+02  1.501236E+02  1.501355E+02  1.501460E+02  1.501530E+02  1.501527E+02  1.501416E+02  1.501204E+02  1.500940E+02
 1.501016E+02  1.501145E+02  1.501290E+02  1.501425E+02  1.501542E+02  1.501631E+02  1.501657E+02  1.501575E+02  1.501367E+02  1.501075E+02
 1.500966E+02  1.501150E+02  1.501334E+02  1.501491E+02  1.501621E+02  1.501722E+02  1.501770E+02  1.501714E+02  1.501518E+02  1.501210E+02
 1.500843E+02  1.501132E+02  1.501372E+02  1.501558E+02  1.501702E+02  1.501814E+02  1.501878E+02  1.501843E+02  1.501661E+02  1.501344E+02
 1.500591E+02  1.501097E+02  1.501413E+02  1.501631E+02  1.501791E+02  1.501912E+02  1.501987E+02  1.501969E+02  1.501800E+02  1.501475E+02
 1.500096E+02  1.501064E+02  1.501473E+02  1.501721E+02  1.501893E+02  1.502019E+02  1.502101E+02  1.502095E+02  1.501935E+02  1.501603E+02
 1.500031E+02  1.501139E+02  1.501579E+02  1.501834E+02  1.502006E+02  1.502133E+02  1.502217E+02  1.502218E+02  1.502063E+02  1.501723E+02
 1.500010E+02  1.501191E+02  1.501658E+02  1.501922E+02  1.502097E+02  1.502224E+02  1.502310E+02  1.502316E+02  1.502164E+02  1.501818E+02
 1.500009E+02  1.501227E+02  1.501715E+02  1.501986E+02  1.502165E+02  1.502294E+02  1.502381E+02  1.502389E+02  1.502237E+02  1.501885E+02
 1.500009E+02  1.501227E+02  1.501714E+02  1.501986E+02  1.502165E+02  1.502294E+02  1.502382E+02  1.502389E+02  1.502238E+02  1.501886E+02
 1.500024E+02  1.501223E+02  1.501706E+02  1.501979E+02  1.502161E+02  1.502292E+02  1.502380E+02  1.502385E+02  1.502228E+02  1.501872E+02
 1.500061E+02  1.501207E+02  1.501678E+02  1.501953E+02  1.502138E+02  1.502272E+02  1.502360E+02  1.502359E+02  1.502192E+02  1.501830E+02
 1.500147E+02  1.501179E+02  1.501633E+02  1.501909E+02  1.502097E+02  1.502233E+02  1.502320E+02  1.502310E+02  1.502130E+02  1.501761E+02
 1.500774E+02  1.501321E+02  1.501671E+02  1.501911E+02  1.502086E+02  1.502215E+02  1.502293E+02  1.502266E+02  1.502065E+02  1.501686E+02
 1.501158E+02  1.501478E+02  1.501742E+02  1.501945E+02  1.502100E+02  1.502219E+02  1.502281E+02  1.502229E+02  1.501999E+02  1.501604E+02
 1.501413E+02  1.501621E+02  1.501823E+02  1.501993E+02  1.502130E+02  1.502235E+02  1.502276E+02  1.502187E+02  1.501920E+02  1.501509E+02
 1.501595E+02  1.501743E+02  1.501902E+02  1.502045E+02  1.502168E+02  1.502255E+02  1.502263E+02  1.502126E+02  1.501816E+02  1.501394E+02
 1.501729E+02  1.501843E+02  1.501972E+02  1.502096E+02  1.502202E+02  1.502261E+02  1.502216E+02  1.502015E+02  1.501665E+02  1.501248E+02
 1.501827E+02  1.501917E+02  1.502026E+02  1.502130E+02  1.502201E+02  1.502193E+02  1.502058E+02  1.501785E+02  1.501423E+02  1.501052E+02


SCALARS pH                   float 1
LOOKUP_TABLE default
 6.145670E+00  6.145699E+00  6.145731E+00  6.145764E+00  6.145795E+00  6.145820E+00  6.145831E+00  6.145816E+00  6.145753E+00  6.145605E+00
 6.145647E+00  6.145677E+00  6.145709E+00  6.145742E+00  6.145776E+00  6.145806E+00  6.145827E+00  6.145828E+00  6.145791E+00  6.145678E+00
 6.145608E+00  6.145665E+00  6.145699E+00  6.145732E+00  6.145767E+00  6.145800E+00  6.145826E+00  6.145834E+00  6.145810E+00  6.145713E+00
 6.145259E+00  6.145639E+00  6.145692E+00  6.145727E+00  6.145762E+00  6.145797E+00  6.145826E+00  6.145839E+00  6.145823E+00  6.145737E+00
 6.141345E+00  6.145476E+00  6.145680E+00  6.145725E+00  6.145761E+00  6.145797E+00  6.145828E+00  6.145846E+00  6.145836E+00  6.145755E+00
 6.110474E+00  6.144048E+00  6.145633E+00  6.145725E+00  6.145765E+00  6.145801E+00  6.145834E+00  6.145854E+00  6.145848E+00  6.145771E+00
 5.958484E+00  6.135733E+00  6.145376E+00  6.145726E+00  6.145773E+00  6.145810E+00  6.145844E+00  6.145867E+00  6.145863E+00  6.145787E+00
 5.958463E+00  6.133667E+00  6.145270E+00  6.145739E+00  6.145789E+00  6.145825E+00  6.145859E+00  6.145882E+00  6.145880E+00  6.145803E+00
 5.958460E+00  6.132693E+00  6.145208E+00  6.145750E+00  6.145802E+00  6.145838E+00  6.145872E+00  6.145896E+00  6.145894E+00  6.145816E+00
 5.958462E+00  6.132299E+00  6.145181E+00  6.145758E+00  6.145812E+00  6.145848E+00  6.145881E+00  6.145905E+00  6.145904E+00  6.145824E+00
 5.958459E+00  6.132295E+00  6.145177E+00  6.145756E+00  6.145810E+00  6.145846E+00  6.145880E+00  6.145904E+00  6.145903E+00  6.145824E+00
 5.958457E+00  6.132685E+00  6.145204E+00  6.145749E+00  6.145803E+00  6.145840E+00  6.145875E+00  6.145899E+00  6.145897E+00  6.145816E+00
 5.958462E+00  6.133657E+00  6.145265E+00  6.145739E+00  6.145793E+00  6.145831E+00  6.145866E+00  6.145889E+00  6.145885E+00  6.145803E+00
 5.958488E+00  6.135723E+00  6.145374E+00  6.145730E+00  6.145782E+00  6.145821E+00  6.145856E+00  6.145878E+00  6.145872E+00  6.145787E+00
 6.110486E+00  6.144049E+00  6.145641E+00  6.145738E+00  6.145781E+00  6.145820E+00  6.145853E+00  6.145872E+00  6.145861E+00  6.145773E+00
 6.141358E+00  6.145490E+00  6.145700E+00  6.145749E+00  6.145788E+00  6.145825E+00  6.145857E+00  6.145871E+00  6.145854E+00  6.145758E+00
 6.145282E+00  6.145668E+00  6.145724E+00  6.145763E+00  6.145800E+00  6.145836E+00  6.145864E+00  6.145872E+00  6.145845E+00  6.145740E+00
 6.145644E+00  6.145707E+00  6.145745E+00  6.145781E+00  6.145816E+00  6.145850E+00  6.145872E+00  6.145871E+00  6.145832E+00  6.145714E+00
 6.145697E+00  6.145732E+00  6.145766E+00  6.145801E+00  6.145835E+00  6.145864E+00  6.145878E+00  6.145864E+00  6.145808E+00  6.145672E+00
 6.145729E+00  6.145762E+00  6.145795E+00  6.145829E+00  6.145858E+00  6.145875E+00  6.145872E+00  6.145836E+00  6.145752E+00  6.145585E+00


SCALARS Total_H+             float 1
LOOKUP_TABLE default
-3.046786E-03 -3.045569E-03 -3.044103E-03 -3.042445E-03 -3.040674E-03 -3.038895E-03 -3.037238E-03 -3.035830E-03 -3.034803E-03 -3.034421E-03
-3.048018E-03 -3.046885E-03 -3.045498E-03 -3.043883E-03 -3.042089E-03 -3.040200E-03 -3.038367E-03 -3.036763E-03 -3.035521E-03 -3.034876E-03
-3.048771E-03 -3.047575E-03 -3.046197E-03 -3.044624E-03 -3.042854E-03 -3.040936E-03 -3.039009E-03 -3.037277E-03 -3.035912E-03 -3.035156E-03
-3.048180E-03 -3.048131E-03 -3.046659E-03 -3.045085E-03 -3.043337E-03 -3.041419E-03 -3.039440E-03 -3.037613E-03 -3.036154E-03 -3.035335E-03
-3.027752E-03 -3.048109E-03 -3.047004E-03 -3.045370E-03 -3.043628E-03 -3.041717E-03 -3.039710E-03 -3.037815E-03 -3.036281E-03 -3.035427E-03
-2.856343E-03 -3.041088E-03 -3.047107E-03 -3.045506E-03 -3.043749E-03 -3.041846E-03 -3.039826E-03 -3.037885E-03 -3.036298E-03 -3.035432E-03
-2.130207E-03 -2.994362E-03 -3.045876E-03 -3.045453E-03 -3.043695E-03 -3.041806E-03 -3.039787E-03 -3.037820E-03 -3.036200E-03 -3.035343E-03
-2.130109E-03 -2.982387E-03 -3.044974E-03 -3.045182E-03 -3.043470E-03 -3.041616E-03 -3.039615E-03 -3.037642E-03 -3.036007E-03 -3.035176E-03
-2.130028E-03 -2.976627E-03 -3.044342E-03 -3.044938E-03 -3.043253E-03 -3.041424E-03 -3.039437E-03 -3.037461E-03 -3.035820E-03 -3.035014E-03
-2.130002E-03 -2.974253E-03 -3.043988E-03 -3.044751E-03 -3.043073E-03 -3.041253E-03 -3.039272E-03 -3.037297E-03 -3.035658E-03 -3.034879E-03
-2.130045E-03 -2.974288E-03 -3.044013E-03 -3.044768E-03 -3.043084E-03 -3.041260E-03 -3.039277E-03 -3.037299E-03 -3.035659E-03 -3.034880E-03
-2.130141E-03 -2.976633E-03 -3.044263E-03 -3.044806E-03 -3.043088E-03 -3.041239E-03 -3.039243E-03 -3.037268E-03 -3.035645E-03 -3.034885E-03
-2.130287E-03 -2.982344E-03 -3.044772E-03 -3.044885E-03 -3.043115E-03 -3.041228E-03 -3.039212E-03 -3.037244E-03 -3.035651E-03 -3.034915E-03
-2.130433E-03 -2.994221E-03 -3.045508E-03 -3.044958E-03 -3.043127E-03 -3.041195E-03 -3.039159E-03 -3.037208E-03 -3.035658E-03 -3.034952E-03
-2.856174E-03 -3.040583E-03 -3.046429E-03 -3.044720E-03 -3.042897E-03 -3.040957E-03 -3.038928E-03 -3.037024E-03 -3.035551E-03 -3.034903E-03
-3.027046E-03 -3.047189E-03 -3.045955E-03 -3.044237E-03 -3.042444E-03 -3.040508E-03 -3.038506E-03 -3.036683E-03 -3.035324E-03 -3.034770E-03
-3.046980E-03 -3.046783E-03 -3.045215E-03 -3.043578E-03 -3.041795E-03 -3.039865E-03 -3.037917E-03 -3.036216E-03 -3.035013E-03 -3.034584E-03
-3.047105E-03 -3.045798E-03 -3.044349E-03 -3.042733E-03 -3.040942E-03 -3.039033E-03 -3.037182E-03 -3.035658E-03 -3.034653E-03 -3.034377E-03
-3.045905E-03 -3.044689E-03 -3.043254E-03 -3.041616E-03 -3.039820E-03 -3.037980E-03 -3.036309E-03 -3.035038E-03 -3.034276E-03 -3.034175E-03
-3.044261E-03 -3.042996E-03 -3.041510E-03 -3.039859E-03 -3.038146E-03 -3.036532E-03 -3.035206E-03 -3.034296E-03 -3.033837E-03 -3.033974E-03


SCALARS Total_SiO2(aq)       float 1
LOOKUP_TABLE default
 1.040378E-02  1.040168E-02  1.040215E-02  1.040300E-02  1.040373E-02  1.040405E-02  1.040369E-02  1.040258E-02  1.040092E-02  1.039910E-02
 1.043020E-02  1.040638E-02  1.040328E-02  1.040375E-02  1.040460E-02  1.040522E-02  1.040522E-02  1.040430E-02  1.040249E-02  1.040027E-02
 1.054024E-02  1.042778E-02  1.040681E-02  1.040470E-02  1.040533E-02  1.040608E-02  1.040633E-02  1.040566E-02  1.040390E-02  1.040145E-02
 1.084276E-02  1.049905E-02  1.041906E-02  1.040675E-02  1.040615E-02  1.040687E-02  1.040730E-02  1.040685E-02  1.040519E-02  1.040262E-02
 1.142851E-02  1.067326E-02  1.045310E-02  1.041198E-02  1.040734E-02  1.040769E-02  1.040822E-02  1.040795E-02  1.040642E-02  1.040378E-02
 1.225150E-02  1.099112E-02  1.052477E-02  1.042349E-02  1.040934E-02  1.040864E-02  1.040916E-02  1.040903E-02  1.040761E-02  1.040492E-02
 1.308954E-02  1.140594E-02  1.062996E-02  1.044167E-02  1.041231E-02  1.040976E-02  1.041015E-02  1.041011E-02  1.040877E-02  1.040603E-02
 1.308841E-02  1.151497E-02  1.068342E-02  1.045427E-02  1.041492E-02  1.041089E-02  1.041115E-02  1.041116E-02  1.040987E-02  1.040707E-02
 1.308774E-02  1.156371E-02  1.071471E-02  1.046295E-02  1.041691E-02  1.041180E-02  1.041196E-02  1.041200E-02  1.041074E-02  1.040789E-02
 1.308758E-02  1.158351E-02  1.072947E-02  1.046756E-02  1.041815E-02  1.041247E-02  1.041258E-02  1.041263E-02  1.041137E-02  1.040847E-02
 1.308782E-02  1.158358E-02  1.072947E-02  1.046755E-02  1.041814E-02  1.041247E-02  1.041258E-02  1.041263E-02  1.041138E-02  1.040848E-02
 1.308852E-02  1.156413E-02  1.071509E-02  1.046341E-02  1.041744E-02  1.041238E-02  1.041256E-02  1.041260E-02  1.041129E-02  1.040836E-02
 1.308972E-02  1.151575E-02  1.068421E-02  1.045523E-02  1.041601E-02  1.041207E-02  1.041237E-02  1.041237E-02  1.041099E-02  1.040799E-02
 1.309133E-02  1.140708E-02  1.063123E-02  1.044319E-02  1.041402E-02  1.041157E-02  1.041202E-02  1.041195E-02  1.041045E-02  1.040740E-02
 1.225338E-02  1.099287E-02  1.052680E-02  1.042579E-02  1.041181E-02  1.041122E-02  1.041178E-02  1.041158E-02  1.040990E-02  1.040675E-02
 1.143094E-02  1.067589E-02  1.045607E-02  1.041520E-02  1.041071E-02  1.041115E-02  1.041168E-02  1.041127E-02  1.040933E-02  1.040604E-02
 1.084614E-02  1.050276E-02  1.042307E-02  1.041096E-02  1.041048E-02  1.041126E-02  1.041164E-02  1.041092E-02  1.040867E-02  1.040523E-02
 1.054481E-02  1.043265E-02  1.041192E-02  1.040995E-02  1.041067E-02  1.041143E-02  1.041154E-02  1.041040E-02  1.040778E-02  1.040423E-02
 1.043604E-02  1.041244E-02  1.040951E-02  1.041007E-02  1.041096E-02  1.041150E-02  1.041116E-02  1.040947E-02  1.040649E-02  1.040297E-02