# vtk DataFile Version 2.0
PFLOTRAN output
ASCII
DATASET UNSTRUCTURED_GRID
POINTS          462 float
 0.000000E+00  0.000000E+00  0.000000E+00
 2.000000E+03  0.000000E+00  0.000000E+00
 4.000000E+03  0.000000E+00  0.000000E+00
 6.000000E+03  0.000000E+00  0.000000E+00
 8.000000E+03  0.000000E+00  0.000000E+00
 1.000000E+04  0.000000E+00  0.000000E+00
 1.200000E+04  0.000000E+00  0.000000E+00
 1.400000E+04  0.000000E+00  0.000000E+00
 1.600000E+04  0.000000E+00  0.000000E+00
 1.800000E+04  0.000000E+00  0.000000E+00
 2.000000E+04  0.000000E+00  0.000000E+00
 0.000000E+00  1.000000E+00  0.000000E+00
 2.000000E+03  1.000000E+00  0.000000E+00
 4.000000E+03  1.000000E+00  0.000000E+00
 6.000000E+03  1.000000E+00  0.000000E+00
 8.000000E+03  1.000000E+00  0.000000E+00
 1.000000E+04  1.000000E+00  0.000000E+00
 1.200000E+04  1.000000E+00  0.000000E+00
 1.400000E+04  1.000000E+00  0.000000E+00
 1.600000E+04  1.000000E+00  0.000000E+00
 1.800000E+04  1.000000E+00  0.000000E+00
 2.000000E+04  1.000000E+00  0.000000E+00
 0.000000E+00  0.000000E+00  5.000000E+00
 2.000000E+03  0.000000E+00  5.000000E+00
 4.000000E+03  0.000000E+00  5.000000E+00
 6.000000E+03  0.000000E+00  5.000000E+00
 8.000000E+03  0.000000E+00  5.000000E+00
 1.000000E+04  0.000000E+00  5.000000E+00
 1.200000E+04  0.000000E+00  5.000000E+00
 1.400000E+04  0.000000E+00  5.000000E+00
 1.600000E+04  0.000000E+00  5.000000E+00
 1.800000E+04  0.000000E+00  5.000000E+00
 2.000000E+04  0.000000E+00  5.000000E+00
 0.000000E+00  1.000000E+00  5.000000E+00
 2.000000E+03  1.000000E+00  5.000000E+00
 4.000000E+03  1.000000E+00  5.000000E+00
 6.000000E+03  1.000000E+00  5.000000E+00
 8.000000E+03  1.000000E+00  5.000000E+00
 1.000000E+04  1.000000E+00  5.000000E+00
 1.200000E+04  1.000000E+00  5.000000E+00
 1.400000E+04  1.000000E+00  5.000000E+00
 1.600000E+04  1.000000E+00  5.000000E+00
 1.800000E+04  1.000000E+00  5.000000E+00
 2.000000E+04  1.000000E+00  5.000000E+00
 0.000000E+00  0.000000E+00  1.000000E+01
 2.000000E+03  0.000000E+00  1.000000E+01
 4.000000E+03  0.000000E+00  1.000000E+01
 6.000000E+03  0.000000E+00  1.000000E+01
 8.000000E+03  0.000000E+00  1.000000E+01
 1.000000E+04  0.000000E+00  1.000000E+01
 1.200000E+04  0.000000E+00  1.000000E+01
 1.400000E+04  0.000000E+00  1.000000E+01
 1.600000E+04  0.000000E+00  1.000000E+01
 1.800000E+04  0.000000E+00  1.000000E+01
 2.000000E+04  0.000000E+00  1.000000E+01
 0.000000E+00  1.000000E+00  1.000000E+01
 2.000000E+03  1.000000E+00  1.000000E+01
 4.000000E+03  1.000000E+00  1.000000E+01
 6.000000E+03  1.000000E+00  1.000000E+01
 8.000000E+03  1.000000E+00  1.000000E+01
 1.000000E+04  1.000000E+00  1.000000E+01
 1.200000E+04  1.000000E+00  1.000000E+01
 1.400000E+04  1.000000E+00  1.000000E+01
 1.600000E+04  1.000000E+00  1.000000E+01
 1.800000E+04  1.000000E+00  1.000000E+01
 2.000000E+04  1.000000E+00  1.000000E+01
 0.000000E+00  0.000000E+00  1.500000E+01
 2.000000E+03  0.000000E+00  1.500000E+01
 4.000000E+03  0.000000E+00  1.500000E+01
 6.000000E+03  0.000000E+00  1.500000E+01
 8.000000E+03  0.000000E+00  1.500000E+01
 1.000000E+04  0.000000E+00  1.500000E+01
 1.200000E+04  0.000000E+00  1.500000E+01
 1.400000E+04  0.000000E+00  1.500000E+01
 1.600000E+04  0.000000E+00  1.500000E+01
 1.800000E+04  0.000000E+00  1.500000E+01
 2.000000E+04  0.000000E+00  1.500000E+01
 0.000000E+00  1.000000E+00  1.500000E+01
 2.000000E+03  1.000000E+00  1.500000E+01
 4.000000E+03  1.000000E+00  1.500000E+01
 6.000000E+03  1.000000E+00  1.500000E+01
 8.000000E+03  1.000000E+00  1.500000E+01
 1.000000E+04  1.000000E+00  1.500000E+01
 1.200000E+04  1.000000E+00  1.500000E+01
 1.400000E+04  1.000000E+00  1.500000E+01
 1.600000E+04  1.000000E+00  1.500000E+01
 1.800000E+04  1.000000E+00  1.500000E+01
 2.000000E+04  1.000000E+00  1.500000E+01
 0.000000E+00  0.000000E+00  2.000000E+01
 2.000000E+03  0.000000E+00  2.000000E+01
 4.000000E+03  0.000000E+00  2.000000E+01
 6.000000E+03  0.000000E+00  2.000000E+01
 8.000000E+03  0.000000E+00  2.000000E+01
 1.000000E+04  0.000000E+00  2.000000E+01
 1.200000E+04  0.000000E+00  2.000000E+01
 1.400000E+04  0.000000E+00  2.000000E+01
 1.600000E+04  0.000000E+00  2.000000E+01
 1.800000E+04  0.000000E+00  2.000000E+01
 2.000000E+04  0.000000E+00  2.000000E+01
 0.000000E+00  1.000000E+00  2.000000E+01
 2.000000E+03  1.000000E+00  2.000000E+01
 4.000000E+03  1.000000E+00  2.000000E+01
 6.000000E+03  1.000000E+00  2.000000E+01
 8.000000E+03  1.000000E+00  2.000000E+01
 1.000000E+04  1.000000E+00  2.000000E+01
 1.200000E+04  1.000000E+00  2.000000E+01
 1.400000E+04  1.000000E+00  2.000000E+01
 1.600000E+04  1.000000E+00  2.000000E+01
 1.800000E+04  1.000000E+00  2.000000E+01
 2.000000E+04  1.000000E+00  2.000000E+01
 0.000000E+00  0.000000E+00  2.500000E+01
 2.000000E+03  0.000000E+00  2.500000E+01
 4.000000E+03  0.000000E+00  2.500000E+01
 6.000000E+03  0.000000E+00  2.500000E+01
 8.000000E+03  0.000000E+00  2.500000E+01
 1.000000E+04  0.000000E+00  2.500000E+01
 1.200000E+04  0.000000E+00  2.500000E+01
 1.400000E+04  0.000000E+00  2.500000E+01
 1.600000E+04  0.000000E+00  2.500000E+01
 1.800000E+04  0.000000E+00  2.500000E+01
 2.000000E+04  0.000000E+00  2.500000E+01
 0.000000E+00  1.000000E+00  2.500000E+01
 2.000000E+03  1.000000E+00  2.500000E+01
 4.000000E+03  1.000000E+00  2.500000E+01
 6.000000E+03  1.000000E+00  2.500000E+01
 8.000000E+03  1.000000E+00  2.500000E+01
 1.000000E+04  1.000000E+00  2.500000E+01
 1.200000E+04  1.000000E+00  2.500000E+01
 1.400000E+04  1.000000E+00  2.500000E+01
 1.600000E+04  1.000000E+00  2.500000E+01
 1.800000E+04  1.000000E+00  2.500000E+01
 2.000000E+04  1.000000E+00  2.500000E+01
 0.000000E+00  0.000000E+00  3.000000E+01
 2.000000E+03  0.000000E+00  3.000000E+01
 4.000000E+03  0.000000E+00  3.000000E+01
 6.000000E+03  0.000000E+00  3.000000E+01
 8.000000E+03  0.000000E+00  3.000000E+01
 1.000000E+04  0.000000E+00  3.000000E+01
 1.200000E+04  0.000000E+00  3.000000E+01
 1.400000E+04  0.000000E+00  3.000000E+01
 1.600000E+04  0.000000E+00  3.000000E+01
 1.800000E+04  0.000000E+00  3.000000E+01
 2.000000E+04  0.000000E+00  3.000000E+01
 0.000000E+00  1.000000E+00  3.000000E+01
 2.000000E+03  1.000000E+00  3.000000E+01
 4.000000E+03  1.000000E+00  3.000000E+01
 6.000000E+03  1.000000E+00  3.000000E+01
 8.000000E+03  1.000000E+00  3.000000E+01
 1.000000E+04  1.000000E+00  3.000000E+01
 1.200000E+04  1.000000E+00  3.000000E+01
 1.400000E+04  1.000000E+00  3.000000E+01
 1.600000E+04  1.000000E+00  3.000000E+01
 1.800000E+04  1.000000E+00  3.000000E+01
 2.000000E+04  1.000000E+00  3.000000E+01
 0.000000E+00  0.000000E+00  3.500000E+01
 2.000000E+03  0.000000E+00  3.500000E+01
 4.000000E+03  0.000000E+00  3.500000E+01
 6.000000E+03  0.000000E+00  3.500000E+01
 8.000000E+03  0.000000E+00  3.500000E+01
 1.000000E+04  0.000000E+00  3.500000E+01
 1.200000E+04  0.000000E+00  3.500000E+01
 1.400000E+04  0.000000E+00  3.500000E+01
 1.600000E+04  0.000000E+00  3.500000E+01
 1.800000E+04  0.000000E+00  3.500000E+01
 2.000000E+04  0.000000E+00  3.500000E+01
 0.000000E+00  1.000000E+00  3.500000E+01
 2.000000E+03  1.000000E+00  3.500000E+01
 4.000000E+03  1.000000E+00  3.500000E+01
 6.000000E+03  1.000000E+00  3.500000E+01
 8.000000E+03  1.000000E+00  3.500000E+01
 1.000000E+04  1.000000E+00  3.500000E+01
 1.200000E+04  1.000000E+00  3.500000E+01
 1.400000E+04  1.000000E+00  3.500000E+01
 1.600000E+04  1.000000E+00  3.500000E+01
 1.800000E+04  1.000000E+00  3.500000E+01
 2.000000E+04  1.000000E+00  3.500000E+01
 0.000000E+00  0.000000E+00  4.000000E+01
 2.000000E+03  0.000000E+00  4.000000E+01
 4.000000E+03  0.000000E+00  4.000000E+01
 6.000000E+03  0.000000E+00  4.000000E+01
 8.000000E+03  0.000000E+00  4.000000E+01
 1.000000E+04  0.000000E+00  4.000000E+01
 1.200000E+04  0.000000E+00  4.000000E+01
 1.400000E+04  0.000000E+00  4.000000E+01
 1.600000E+04  0.000000E+00  4.000000E+01
 1.800000E+04  0.000000E+00  4.000000E+01
 2.000000E+04  0.000000E+00  4.000000E+01
 0.000000E+00  1.000000E+00  4.000000E+01
 2.000000E+03  1.000000E+00  4.000000E+01
 4.000000E+03  1.000000E+00  4.000000E+01
 6.000000E+03  1.000000E+00  4.000000E+01
 8.000000E+03  1.000000E+00  4.000000E+01
 1.000000E+04  1.000000E+00  4.000000E+01
 1.200000E+04  1.000000E+00  4.000000E+01
 1.400000E+04  1.000000E+00  4.000000E+01
 1.600000E+04  1.000000E+00  4.000000E+01
 1.800000E+04  1.000000E+00  4.000000E+01
 2.000000E+04  1.000000E+00  4.000000E+01
 0.000000E+00  0.000000E+00  4.500000E+01
 2.000000E+03  0.000000E+00  4.500000E+01
 4.000000E+03  0.000000E+00  4.500000E+01
 6.000000E+03  0.000000E+00  4.500000E+01
 8.000000E+03  0.000000E+00  4.500000E+01
 1.000000E+04  0.000000E+00  4.500000E+01
 1.200000E+04  0.000000E+00  4.500000E+01
 1.400000E+04  0.000000E+00  4.500000E+01
 1.600000E+04  0.000000E+00  4.500000E+01
 1.800000E+04  0.000000E+00  4.500000E+01
 2.000000E+04  0.000000E+00  4.500000E+01
 0.000000E+00  1.000000E+00  4.500000E+01
 2.000000E+03  1.000000E+00  4.500000E+01
 4.000000E+03  1.000000E+00  4.500000E+01
 6.000000E+03  1.000000E+00  4.500000E+01
 8.000000E+03  1.000000E+00  4.500000E+01
 1.000000E+04  1.000000E+00  4.500000E+01
 1.200000E+04  1.000000E+00  4.500000E+01
 1.400000E+04  1.000000E+00  4.500000E+01
 1.600000E+04  1.000000E+00  4.500000E+01
 1.800000E+04  1.000000E+00  4.500000E+01
 2.000000E+04  1.000000E+00  4.500000E+01
 0.000000E+00  0.000000E+00  5.000000E+01
 2.000000E+03  0.000000E+00  5.000000E+01
 4.000000E+03  0.000000E+00  5.000000E+01
 6.000000E+03  0.000000E+00  5.000000E+01
 8.000000E+03  0.000000E+00  5.000000E+01
 1.000000E+04  0.000000E+00  5.000000E+01
 1.200000E+04  0.000000E+00  5.000000E+01
 1.400000E+04  0.000000E+00  5.000000E+01
 1.600000E+04  0.000000E+00  5.000000E+01
 1.800000E+04  0.000000E+00  5.000000E+01
 2.000000E+04  0.000000E+00  5.000000E+01
 0.000000E+00  1.000000E+00  5.000000E+01
 2.000000E+03  1.000000E+00  5.000000E+01
 4.000000E+03  1.000000E+00  5.000000E+01
 6.000000E+03  1.000000E+00  5.000000E+01
[...]
CELL_DATA      200
SCALARS Porosity             float 1
LOOKUP_TABLE default
 4.377100E-01  4.377100E-01  4.377100E-01  4.377100E-01  4.377100E-01  4.377100E-01  4.377100E-01  4.377100E-01  4.377100E-01  4.377100E-01
 4.377100E-01  4.377100E-01  4.377100E-01  4.377100E-01  4.377100E-01  4.377100E-01  4.377100E-01  4.377100E-01  4.377100E-01  4.377100E-01
 4.377100E-01  4.377100E-01  4.377100E-01  4.377100E-01  4.377100E-01  4.377100E-01  4.377100E-01  4.377100E-01  4.377100E-01  4.377100E-01
 4.377100E-01  4.377100E-01  4.377100E-01  4.377100E-01  4.377100E-01  4.377100E-01  4.377100E-01  4.377100E-01  4.377100E-01  4.377100E-01
 4.377100E-01  4.377100E-01  4.377100E-01  4.377100E-01  4.377100E-01  4.377100E-01  4.377100E-01  4.377100E-01  4.377100E-01  4.377100E-01
 4.377100E-01  4.377100E-01  4.377100E-01  4.377100E-01  4.377100E-01  4.377100E-01  4.377100E-01  4.377100E-01  4.377100E-01  4.377100E-01
 4.377099E-01  4.377100E-01  4.377100E-01  4.377100E-01  4.377100E-01  4.377100E-01  4.377100E-01  4.377100E-01  4.377100E-01  4.377100E-01
 4.377099E-01  4.377100E-01  4.377100E-01  4.377100E-01  4.377100E-01  4.377100E-01  4.377100E-01  4.377100E-01  4.377100E-01  4.377100E-01
 4.377099E-01  4.377100E-01  4.377100E-01  4.377100E-01  4.377100E-01  4.377100E-01  4.377100E-01  4.377100E-01  4.377100E-01  4.377100E-01
 4.377099E-01  4.377100E-01  4.377100E-01  4.377100E-01  4.377100E-01  4.377100E-01  4.377100E-01  4.377100E-01  4.377100E-01  4.377100E-01
 4.377099E-01  4.377100E-01  4.377100E-01  4.377100E-01  4.377100E-01  4.377100E-01  4.377100E-01  4.377100E-01  4.377100E-01  4.377100E-01
 4.377099E-01  4.377100E-01  4.377100E-01  4.377100E-01  4.377100E-01  4.377100E-01  4.377100E-01  4.377100E-01  4.377100E-01  4.377100E-01
 4.377099E-01  4.377100E-01  4.377100E-01  4.377100E-01  4.377100E-01  4.377100E-01  4.377100E-01  4.377100E-01  4.377100E-01  4.377100E-01
 4.377099E-01  4.377100E-01  4.377100E-01  4.377100E-01  4.377100E-01  4.377100E-01  4.377100E-01  4.377100E-01  4.377100E-01  4.377100E-01
 4.377100E-01  4.377100E-01  4.377100E-01  4.377100E-01  4.377100E-01  4.377100E-01  4.377100E-01  4.377100E-01  4.377100E-01  4.377100E-01
 4.377100E-01  4.377100E-01  4.377100E-01  4.377100E-01  4.377100E-01  4.377100E-01  4.377100E-01  4.377100E-01  4.377100E-01  4.377100E-01
 4.377100E-01  4.377100E-01  4.377100E-01  4.377100E-01  4.377100E-01  4.377100E-01  4.377100E-01  4.377100E-01  4.377100E-01  4.377100E-01
 4.377100E-01  4.377100E-01  4.377100E-01  4.377100E-01  4.377100E-01  4.377100E-01  4.377100E-01  4.377100E-01  4.377100E-01  4.377100E-01
 4.377100E-01  4.377100E-01  4.377100E-01  4.377100E-01  4.377100E-01  4.377100E-01  4.377100E-01  4.377100E-01  4.377100E-01  4.377100E-01
 4.377100E-01  4.377100E-01  4.377100E-01  4.377100E-01  4.377100E-01  4.377100E-01  4.377100E-01  4.377100E-01  4.377100E-01  4.377100E-01


SCALARS Permeability         float 1
LOOKUP_TABLE default
 8.829805E-13  8.829804E-13  8.829804E-13  8.829804E-13  8.829804E-13  8.829804E-13  8.829804E-13  8.829804E-13  8.829804E-13  8.829804E-13
 8.829805E-13  8.829804E-13  8.829804E-13  8.829804E-13  8.829804E-13  8.829804E-13  8.829804E-13  8.829804E-13  8.829804E-13  8.829804E-13
 8.829805E-13  8.829804E-13  8.829804E-13  8.829804E-13  8.829804E-13  8.829804E-13  8.829804E-13  8.829804E-13  8.829804E-13  8.829804E-13
 8.829805E-13  8.829805E-13  8.829804E-13  8.829804E-13  8.829804E-13  8.829804E-13  8.829804E-13  8.829804E-13  8.829804E-13  8.829804E-13
 8.829805E-13  8.829805E-13  8.829804E-13  8.829804E-13  8.829804E-13  8.829804E-13  8.829804E-13  8.829804E-13  8.829804E-13  8.829804E-13
 8.829805E-13  8.829805E-13  8.829804E-13  8.829804E-13  8.829804E-13  8.829804E-13  8.829804E-13  8.829804E-13  8.829804E-13  8.829804E-13
 8.829800E-13  8.829805E-13  8.829804E-13  8.829804E-13  8.829804E-13  8.829804E-13  8.829804E-13  8.829804E-13  8.829804E-13  8.829804E-13
 8.829800E-13  8.829805E-13  8.829804E-13  8.829804E-13  8.829804E-13  8.829804E-13  8.829804E-13  8.829804E-13  8.829804E-13  8.829804E-13
 8.829800E-13  8.829805E-13  8.829804E-13  8.829804E-13  8.829804E-13  8.829804E-13  8.829804E-13  8.829804E-13  8.829804E-13  8.829804E-13
 8.829800E-13  8.829805E-13  8.829804E-13  8.829804E-13  8.829804E-13  8.829804E-13  8.829804E-13  8.829804E-13  8.829804E-13  8.829804E-13
 8.829800E-13  8.829805E-13  8.829804E-13  8.829804E-13  8.829804E-13  8.829804E-13  8.829804E-13  8.829804E-13  8.829804E-13  8.829804E-13
 8.829800E-13  8.829805E-13  8.829804E-13  8.829804E-13  8.829804E-13  8.829804E-13  8.829804E-13  8.829804E-13  8.829804E-13  8.829804E-13
 8.829800E-13  8.829805E-13  8.829804E-13  8.829804E-13  8.829804E-13  8.829804E-13  8.829804E-13  8.829804E-13  8.829804E-13  8.829804E-13
 8.829800E-13  8.829805E-13  8.829804E-13  8.829804E-13  8.829804E-13  8.829804E-13  8.829804E-13  8.829804E-13  8.829804E-13  8.829804E-13
 8.829806E-13  8.829805E-13  8.829805E-13  8.829804E-13  8.829804E-13  8.829804E-13  8.829804E-13  8.829804E-13  8.829804E-13  8.829804E-13
 8.829806E-13  8.829805E-13  8.829805E-13  8.829804E-13  8.829804E-13  8.829804E-13  8.829804E-13  8.829804E-13  8.829804E-13  8.829804E-13
 8.829806E-13  8.829805E-13  8.829805E-13  8.829804E-13  8.829804E-13  8.829804E-13  8.829804E-13  8.829804E-13  8.829804E-13  8.829804E-13
 8.829806E-13  8.829805E-13  8.829805E-13  8.829804E-13  8.829804E-13  8.829804E-13  8.829804E-13  8.829804E-13  8.829804E-13  8.829804E-13
 8.829806E-13  8.829805E-13  8.829805E-13  8.829804E-13  8.829804E-13  8.829804E-13  8.829804E-13  8.829804E-13  8.829804E-13  8.829804E-13
 8.829806E-13  8.829805E-13  8.829805E-13  8.829804E-13  8.829804E-13  8.829804E-13  8.829804E-13  8.829804E-13  8.829804E-13  8.829804E-13


SCALARS Liquid_Pressure      float 1
LOOKUP_TABLE default
 8.234638E+06  7.870319E+06  7.710910E+06  7.625044E+06  7.575955E+06  7.546378E+06  7.526570E+06  7.511006E+06  7.496967E+06  7.483625E+06
 8.189472E+06  7.825158E+06  7.665753E+06  7.579889E+06  7.530802E+06  7.501225E+06  7.481418E+06  7.465854E+06  7.451815E+06  7.438474E+06
 8.144313E+06  7.779998E+06  7.620597E+06  7.534735E+06  7.485649E+06  7.456073E+06  7.436267E+06  7.420703E+06  7.406665E+06  7.393324E+06
 8.099159E+06  7.734840E+06  7.575443E+06  7.489583E+06  7.440498E+06  7.410923E+06  7.391117E+06  7.375554E+06  7.361516E+06  7.348175E+06
 8.054012E+06  7.689683E+06  7.530289E+06  7.444432E+06  7.395349E+06  7.365774E+06  7.345969E+06  7.330406E+06  7.316368E+06  7.303028E+06
 8.008871E+06  7.644527E+06  7.485137E+06  7.399282E+06  7.350200E+06  7.320626E+06  7.300821E+06  7.285259E+06  7.271221E+06  7.257882E+06
 7.963735E+06  7.599372E+06  7.439987E+06  7.354134E+06  7.305053E+06  7.275479E+06  7.255675E+06  7.240113E+06  7.226076E+06  7.212737E+06
 7.918594E+06  7.554218E+06  7.394837E+06  7.308986E+06  7.259907E+06  7.230334E+06  7.210530E+06  7.194969E+06  7.180932E+06  7.167593E+06
 7.873447E+06  7.509066E+06  7.349689E+06  7.263840E+06  7.214762E+06  7.185190E+06  7.165387E+06  7.149826E+06  7.135789E+06  7.122451E+06
 7.828294E+06  7.463915E+06  7.304542E+06  7.218696E+06  7.169618E+06  7.140047E+06  7.120245E+06  7.104684E+06  7.090648E+06  7.077309E+06
 7.783135E+06  7.418766E+06  7.259397E+06  7.173552E+06  7.124476E+06  7.094906E+06  7.075104E+06  7.059543E+06  7.045507E+06  7.032170E+06
 7.737971E+06  7.373617E+06  7.214252E+06  7.128410E+06  7.079335E+06  7.049766E+06  7.029964E+06  7.014404E+06  7.000368E+06  6.987031E+06
 7.692800E+06  7.328470E+06  7.169109E+06  7.083269E+06  7.034196E+06  7.004627E+06  6.984826E+06  6.969266E+06  6.955231E+06  6.941894E+06
 7.647623E+06  7.283324E+06  7.123967E+06  7.038129E+06  6.989057E+06  6.959489E+06  6.939688E+06  6.924129E+06  6.910094E+06  6.896757E+06
 7.602441E+06  7.238180E+06  7.078827E+06  6.992991E+06  6.943920E+06  6.914353E+06  6.894552E+06  6.878994E+06  6.864959E+06  6.851623E+06
 7.557265E+06  7.193036E+06  7.033687E+06  6.947854E+06  6.898784E+06  6.869217E+06  6.849418E+06  6.833859E+06  6.819825E+06  6.806489E+06
 7.512094E+06  7.147894E+06  6.988549E+06  6.902718E+06  6.853649E+06  6.824084E+06  6.804284E+06  6.788726E+06  6.774693E+06  6.761357E+06
 7.466930E+06  7.102753E+06  6.943412E+06  6.857583E+06  6.808516E+06  6.778951E+06  6.759152E+06  6.743595E+06  6.729561E+06  6.716226E+06
 7.421772E+06  7.057614E+06  6.898277E+06  6.812450E+06  6.763384E+06  6.733820E+06  6.714021E+06  6.698464E+06  6.684431E+06  6.671096E+06
 7.376620E+06  7.012475E+06  6.853143E+06  6.767318E+06  6.718253E+06  6.688689E+06  6.668892E+06  6.653335E+06  6.639302E+06  6.625967E+06


SCALARS Temperature          float 1
LOOKUP_TABLE default
 1.500429E+02  1.500214E+02  1.500120E+02  1.500069E+02  1.500040E+02  1.500022E+02  1.500011E+02  1.500001E+02  1.499993E+02  1.499985E+02
 1.500429E+02  1.500214E+02  1.500120E+02  1.500069E+02  1.500040E+02  1.500022E+02  1.500011E+02  1.500001E+02  1.499993E+02  1.499985E+02
 1.500429E+02  1.500214E+02  1.500120E+02  1.500069E+02  1.500040E+02  1.500022E+02  1.500011E+02  1.500001E+02  1.499993E+02  1.499985E+02
 1.500429E+02  1.500214E+02  1.500120E+02  1.500069E+02  1.500040E+02  1.500022E+02  1.500011E+02  1.500001E+02  1.499993E+02  1.499985E+02
 1.500429E+02  1.500214E+02  1.500120E+02  1.500069E+02  1.500040E+02  1.500022E+02  1.500011E+02  1.500001E+02  1.499993E+02  1.499985E+02
 1.500429E+02  1.500214E+02  1.500120E+02  1.500069E+02  1.500040E+02  1.500022E+02  1.500011E+02  1.500001E+02  1.499993E+02  1.499985E+02
 1.500428E+02  1.500214E+02  1.500120E+02  1.500069E+02  1.500040E+02  1.500022E+02  1.500011E+02  1.500001E+02  1.499993E+02  1.499985E+02
 1.500428E+02  1.500214E+02  1.500120E+02  1.500069E+02  1.500040E+02  1.500022E+02  1.500011E+02  1.500001E+02  1.499993E+02  1.499985E+02
 1.500429E+02  1.500214E+02  1.500120E+02  1.500069E+02  1.500040E+02  1.500022E+02  1.500011E+02  1.500001E+02  1.499993E+02  1.499985E+02
 1.500429E+02  1.500214E+02  1.500120E+02  1.500069E+02  1.500040E+02  1.500022E+02  1.500011E+02  1.500001E+02  1.499993E+02  1.499985E+02
 1.500429E+02  1.500215E+02  1.500120E+02  1.500069E+02  1.500040E+02  1.500022E+02  1.500011E+02  1.500001E+02  1.499993E+02  1.499985E+02
 1.500429E+02  1.500215E+02  1.500120E+02  1.500069E+02  1.500040E+02  1.500022E+02  1.500011E+02  1.500001E+02  1.499993E+02  1.499985E+02
 1.500429E+02  1.500215E+02  1.500120E+02  1.500069E+02  1.500040E+02  1.500022E+02  1.500011E+02  1.500001E+02  1.499993E+02  1.499985E+02
 1.500429E+02  1.500215E+02  1.500120E+02  1.500069E+02  1.500040E+02  1.500022E+02  1.500011E+02  1.500001E+02  1.499993E+02  1.499985E+02
 1.500431E+02  1.500215E+02  1.500120E+02  1.500069E+02  1.500040E+02  1.500022E+02  1.500011E+02  1.500001E+02  1.499993E+02  1.499985E+02
 1.500431E+02  1.500215E+02  1.500120E+02  1.500069E+02  1.500040E+02  1.500022E+02  1.500011E+02  1.500001E+02  1.499993E+02  1.499985E+02
 1.500431E+02  1.500215E+02  1.500120E+02  1.500069E+02  1.500040E+02  1.500022E+02  1.500011E+02  1.500001E+02  1.499993E+02  1.499985E+02
 1.500431E+02  1.500215E+02  1.500120E+02  1.500069E+02  1.500040E+02  1.500022E+02  1.500011E+02  1.500001E+02  1.499993E+02  1.499985E+02
 1.500431E+02  1.500215E+02  1.500120E+02  1.500069E+02  1.500040E+02  1.500022E+02  1.500011E+02  1.500001E+02  1.499993E+02  1.499985E+02
 1.500431E+02  1.500215E+02  1.500120E+02  1.500069E+02  1.500040E+02  1.500022E+02  1.500011E+02  1.500001E+02  1.499993E+02  1.499985E+02


SCALARS pH                   float 1
LOOKUP_TABLE default
 6.144322E+00  6.144290E+00  6.144276E+00  6.144268E+00  6.144264E+00  6.144261E+00  6.144260E+00  6.144258E+00  6.144257E+00  6.144256E+00
 6.144322E+00  6.144290E+00  6.144276E+00  6.144268E+00  6.144264E+00  6.144261E+00  6.144260E+00  6.144258E+00  6.144257E+00  6.144256E+00
 6.144322E+00  6.144290E+00  6.144276E+00  6.144268E+00  6.144264E+00  6.144261E+00  6.144260E+00  6.144258E+00  6.144257E+00  6.144256E+00
 6.144322E+00  6.144290E+00  6.144276E+00  6.144268E+00  6.144264E+00  6.144261E+00  6.144260E+00  6.144258E+00  6.144257E+00  6.144256E+00
 6.144322E+00  6.144290E+00  6.144276E+00  6.144268E+00  6.144264E+00  6.144261E+00  6.144260E+00  6.144258E+00  6.144257E+00  6.144256E+00
 6.144322E+00  6.144290E+00  6.144276E+00  6.144268E+00  6.144264E+00  6.144261E+00  6.144260E+00  6.144258E+00  6.144257E+00  6.144256E+00
 6.144325E+00  6.144290E+00  6.144276E+00  6.144268E+00  6.144264E+00  6.144261E+00  6.144260E+00  6.144258E+00  6.144257E+00  6.144256E+00
 6.144325E+00  6.144290E+00  6.144276E+00  6.144268E+00  6.144264E+00  6.144261E+00  6.144260E+00  6.144258E+00  6.144257E+00  6.144256E+00
 6.144325E+00  6.144290E+00  6.144276E+00  6.144268E+00  6.144264E+00  6.144261E+00  6.144260E+00  6.144258E+00  6.144257E+00  6.144256E+00
 6.144325E+00  6.144290E+00  6.144276E+00  6.144268E+00  6.144264E+00  6.144261E+00  6.144260E+00  6.144258E+00  6.144257E+00  6.144256E+00
 6.144325E+00  6.144290E+00  6.144276E+00  6.144268E+00  6.144264E+00  6.144261E+00  6.144260E+00  6.144258E+00  6.144257E+00  6.144256E+00
 6.144325E+00  6.144290E+00  6.144276E+00  6.144268E+00  6.144264E+00  6.144261E+00  6.144260E+00  6.144258E+00  6.144257E+00  6.144256E+00
 6.144325E+00  6.144290E+00  6.144276E+00  6.144268E+00  6.144264E+00  6.144261E+00  6.144260E+00  6.144258E+00  6.144257E+00  6.144256E+00
 6.144325E+00  6.144290E+00  6.144276E+00  6.144268E+00  6.144264E+00  6.144261E+00  6.144260E+00  6.144258E+00  6.144257E+00  6.144256E+00
 6.144322E+00  6.144290E+00  6.144276E+00  6.144268E+00  6.144264E+00  6.144261E+00  6.144260E+00  6.144258E+00  6.144257E+00  6.144256E+00
 6.144322E+00  6.144290E+00  6.144276E+00  6.144268E+00  6.144264E+00  6.144261E+00  6.144260E+00  6.144258E+00  6.144257E+00  6.144256E+00
 6.144322E+00  6.144290E+00  6.144276E+00  6.144268E+00  6.144264E+00  6.144261E+00  6.144260E+00  6.144258E+00  6.144257E+00  6.144256E+00
 6.144322E+00  6.144290E+00  6.144276E+00  6.144268E+00  6.144264E+00  6.144261E+00  6.144260E+00  6.144258E+00  6.144257E+00  6.144256E+00
 6.144322E+00  6.144290E+00  6.144276E+00  6.144268E+00  6.144264E+00  6.144261E+00  6.144260E+00  6.144258E+00  6.144257E+00  6.144256E+00
 6.144322E+00  6.144290E+00  6.144276E+00  6.144268E+00  6.144264E+00  6.144261E+00  6.144260E+00  6.144258E+00  6.144257E+00  6.144256E+00


SCALARS Total_H+             float 1
LOOKUP_TABLE default
-3.047527E-03 -3.048277E-03 -3.048608E-03 -3.048787E-03 -3.048890E-03 -3.048952E-03 -3.048993E-03 -3.049026E-03 -3.049055E-03 -3.049082E-03
-3.047527E-03 -3.048277E-03 -3.048608E-03 -3.048787E-03 -3.048889E-03 -3.048951E-03 -3.048993E-03 -3.049025E-03 -3.049054E-03 -3.049082E-03
-3.047527E-03 -3.048276E-03 -3.048607E-03 -3.048786E-03 -3.048889E-03 -3.048951E-03 -3.048993E-03 -3.049025E-03 -3.049054E-03 -3.049081E-03
-3.047527E-03 -3.048276E-03 -3.048607E-03 -3.048786E-03 -3.048889E-03 -3.048951E-03 -3.048992E-03 -3.049025E-03 -3.049054E-03 -3.049081E-03
-3.047526E-03 -3.048275E-03 -3.048607E-03 -3.048786E-03 -3.048888E-03 -3.048950E-03 -3.048992E-03 -3.049024E-03 -3.049053E-03 -3.049080E-03
-3.047526E-03 -3.048275E-03 -3.048606E-03 -3.048785E-03 -3.048888E-03 -3.048950E-03 -3.048991E-03 -3.049024E-03 -3.049053E-03 -3.049080E-03
-3.047501E-03 -3.048274E-03 -3.048606E-03 -3.048785E-03 -3.048888E-03 -3.048950E-03 -3.048991E-03 -3.049024E-03 -3.049053E-03 -3.049080E-03
-3.047500E-03 -3.048274E-03 -3.048605E-03 -3.048784E-03 -3.048887E-03 -3.048949E-03 -3.048991E-03 -3.049023E-03 -3.049052E-03 -3.049079E-03
-3.047500E-03 -3.048273E-03 -3.048605E-03 -3.048784E-03 -3.048887E-03 -3.048949E-03 -3.048990E-03 -3.049023E-03 -3.049052E-03 -3.049079E-03
-3.047499E-03 -3.048273E-03 -3.048604E-03 -3.048784E-03 -3.048886E-03 -3.048948E-03 -3.048990E-03 -3.049022E-03 -3.049051E-03 -3.049079E-03
-3.047498E-03 -3.048272E-03 -3.048604E-03 -3.048783E-03 -3.048886E-03 -3.048948E-03 -3.048990E-03 -3.049022E-03 -3.049051E-03 -3.049078E-03
-3.047498E-03 -3.048272E-03 -3.048604E-03 -3.048783E-03 -3.048886E-03 -3.048948E-03 -3.048989E-03 -3.049022E-03 -3.049051E-03 -3.049078E-03
-3.047497E-03 -3.048271E-03 -3.048603E-03 -3.048782E-03 -3.048885E-03 -3.048947E-03 -3.048989E-03 -3.049021E-03 -3.049050E-03 -3.049077E-03
-3.047496E-03 -3.048271E-03 -3.048603E-03 -3.048782E-03 -3.048885E-03 -3.048947E-03 -3.048988E-03 -3.049021E-03 -3.049050E-03 -3.049077E-03
-3.047517E-03 -3.048271E-03 -3.048602E-03 -3.048782E-03 -3.048884E-03 -3.048946E-03 -3.048988E-03 -3.049020E-03 -3.049050E-03 -3.049077E-03
-3.047517E-03 -3.048270E-03 -3.048602E-03 -3.048781E-03 -3.048884E-03 -3.048946E-03 -3.048988E-03 -3.049020E-03 -3.049049E-03 -3.049076E-03
-3.047517E-03 -3.048270E-03 -3.048601E-03 -3.048781E-03 -3.048884E-03 -3.048946E-03 -3.048987E-03 -3.049020E-03 -3.049049E-03 -3.049076E-03
-3.047517E-03 -3.048269E-03 -3.048601E-03 -3.048780E-03 -3.048883E-03 -3.048945E-03 -3.048987E-03 -3.049019E-03 -3.049048E-03 -3.049076E-03
-3.047516E-03 -3.048269E-03 -3.048600E-03 -3.048780E-03 -3.048883E-03 -3.048945E-03 -3.048986E-03 -3.049019E-03 -3.049048E-03 -3.049075E-03
-3.047516E-03 -3.048268E-03 -3.048600E-03 -3.048779E-03 -3.048882E-03 -3.048944E-03 -3.048986E-03 -3.049019E-03 -3.049048E-03 -3.049075E-03


SCALARS Total_SiO2(aq)       float 1
LOOKUP_TABLE default
 1.039572E-02  1.039388E-02  1.039307E-02  1.039263E-02  1.039238E-02  1.039224E-02  1.039214E-02  1.039206E-02  1.039199E-02  1.039192E-02
 1.039572E-02  1.039388E-02  1.039307E-02  1.039263E-02  1.039238E-02  1.039224E-02  1.039214E-02  1.039206E-02  1.039199E-02  1.039192E-02
 1.039572E-02  1.039388E-02  1.039307E-02  1.039263E-02  1.039238E-02  1.039224E-02  1.039214E-02  1.039206E-02  1.039199E-02  1.039192E-02
 1.039572E-02  1.039388E-02  1.039307E-02  1.039263E-02  1.039238E-02  1.039224E-02  1.039214E-02  1.039206E-02  1.039199E-02  1.039192E-02
 1.039572E-02  1.039388E-02  1.039307E-02  1.039263E-02  1.039238E-02  1.039224E-02  1.039214E-02  1.039206E-02  1.039199E-02  1.039192E-02
 1.039572E-02  1.039388E-02  1.039307E-02  1.039263E-02  1.039238E-02  1.039224E-02  1.039214E-02  1.039206E-02  1.039199E-02  1.039192E-02
 1.039595E-02  1.039388E-02  1.039307E-02  1.039263E-02  1.039238E-02  1.039224E-02  1.039214E-02  1.039206E-02  1.039199E-02  1.039192E-02
 1.039595E-02  1.039388E-02  1.039307E-02  1.039263E-02  1.039238E-02  1.039224E-02  1.039214E-02  1.039206E-02  1.039199E-02  1.039192E-02
 1.039595E-02  1.039388E-02  1.039307E-02  1.039263E-02  1.039238E-02  1.039224E-02  1.039214E-02  1.039206E-02  1.039199E-02  1.039192E-02
 1.039595E-02  1.039388E-02  1.039307E-02  1.039263E-02  1.039238E-02  1.039224E-02  1.039214E-02  1.039206E-02  1.039199E-02  1.039192E-02
 1.039595E-02  1.039388E-02  1.039307E-02  1.039263E-02  1.039239E-02  1.039224E-02  1.039214E-02  1.039206E-02  1.039199E-02  1.039192E-02
 1.039595E-02  1.039388E-02  1.039307E-02  1.039263E-02  1.039239E-02  1.039224E-02  1.039214E-02  1.039206E-02  1.039199E-02  1.039192E-02
 1.039595E-02  1.039388E-02  1.039307E-02  1.039263E-02  1.039239E-02  1.039224E-02  1.039214E-02  1.039206E-02  1.039199E-02  1.039192E-02
 1.039596E-02  1.039388E-02  1.039307E-02  1.039263E-02  1.039239E-02  1.039224E-02  1.039214E-02  1.039206E-02  1.039199E-02  1.039192E-02
 1.039574E-02  1.039388E-02  1.039307E-02  1.039263E-02  1.039239E-02  1.039224E-02  1.039214E-02  1.039206E-02  1.039199E-02  1.039192E-02
 1.039574E-02  1.039388E-02  1.039307E-02  1.039263E-02  1.039239E-02  1.039224E-02  1.039214E-02  1.039206E-02  1.039199E-02  1.039192E-02
 1.039574E-02  1.039388E-02  1.039307E-02  1.039263E-02  1.039239E-02  1.039224E-02  1.039214E-02  1.039206E-02  1.039199E-02  1.039192E-02
 1.039574E-02  1.039388E-02  1.039307E-02  1.039263E-02  1.039239E-02  1.039224E-02  1.039214E-02  1.039206E-02  1.039199E-02  1.039192E-02
 1.039574E-02  1.039388E-02  1.039307E-02  1.039263E-02  1.039239E-02  1.039224E-02  1.039214E-02  1.039206E-02  1.039199E-02  1.039192E-02