# vtk DataFile Version 2.0
PFLOTRAN output
ASCII
DATASET UNSTRUCTURED_GRID
POINTS          462 float
 0.000000E+00  0.000000E+00  0.000000E+00
 2.000000E+03  0.000000E+00  0.000000E+00
 4.000000E+03  0.000000E+00  0.000000E+00
 6.000000E+03  0.000000E+00  0.000000E+00
 8.000000E+03  0.000000E+00  0.000000E+00
 1.000000E+04  0.000000E+00  0.000000E+00
 1.200000E+04  0.000000E+00  0.000000E+00
 1.400000E+04  0.000000E+00  0.000000E+00
 1.600000E+04  0.000000E+00  0.000000E+00
 1.800000E+04  0.000000E+00  0.000000E+00
 2.000000E+04  0.000000E+00  0.000000E+00
 0.000000E+00  1.000000E+00  0.000000E+00
 2.000000E+03  1.000000E+00  0.000000E+00
 4.000000E+03  1.000000E+00  0.000000E+00
 6.000000E+03  1.000000E+00  0.000000E+00
 8.000000E+03  1.000000E+00  0.000000E+00
 1.000000E+04  1.000000E+00  0.000000E+00
 1.200000E+04  1.000000E+00  0.000000E+00
 1.400000E+04  1.000000E+00  0.000000E+00
 1.600000E+04  1.000000E+00  0.000000E+00
 1.800000E+04  1.000000E+00  0.000000E+00
 2.000000E+04  1.000000E+00  0.000000E+00
 0.000000E+00  0.000000E+00  5.000000E+00
 2.000000E+03  0.000000E+00  5.000000E+00
 4.000000E+03  0.000000E+00  5.000000E+00
 6.000000E+03  0.000000E+00  5.000000E+00
 8.000000E+03  0.000000E+00  5.000000E+00
 1.000000E+04  0.000000E+00  5.000000E+00
 1.200000E+04  0.000000E+00  5.000000E+00
 1.400000E+04  0.000000E+00  5.000000E+00
 1.600000E+04  0.000000E+00  5.000000E+00
 1.800000E+04  0.000000E+00  5.000000E+00
 2.000000E+04  0.000000E+00  5.000000E+00
 0.000000E+00  1.000000E+00  5.000000E+00
 2.000000E+03  1.000000E+00  5.000000E+00
 4.000000E+03  1.000000E+00  5.000000E+00
 6.000000E+03  1.000000E+00  5.000000E+00
 8.000000E+03  1.000000E+00  5.000000E+00
 1.000000E+04  1.000000E+00  5.000000E+00
 1.200000E+04  1.000000E+00  5.000000E+00
 1.400000E+04  1.000000E+00  5.000000E+00
 1.600000E+04  1.000000E+00  5.000000E+00
 1.800000E+04  1.000000E+00  5.000000E+00
 2.000000E+04  1.000000E+00  5.000000E+00
 0.000000E+00  0.000000E+00  1.000000E+01
 2.000000E+03  0.000000E+00  1.000000E+01
 4.000000E+03  0.000000E+00  1.000000E+01
 6.000000E+03  0.000000E+00  1.000000E+01
 8.000000E+03  0.000000E+00  1.000000E+01
 1.000000E+04  0.000000E+00  1.000000E+01
 1.200000E+04  0.000000E+00  1.000000E+01
 1.400000E+04  0.000000E+00  1.000000E+01
 1.600000E+04  0.000000E+00  1.000000E+01
 1.800000E+04  0.000000E+00  1.000000E+01
 2.000000E+04  0.000000E+00  1.000000E+01
 0.000000E+00  1.000000E+00  1.000000E+01
 2.000000E+03  1.000000E+00  1.000000E+01
 4.000000E+03  1.000000E+00  1.000000E+01
 6.000000E+03  1.000000E+00  1.000000E+01
 8.000000E+03  1.000000E+00  1.000000E+01
 1.000000E+04  1.000000E+00  1.000000E+01
 1.200000E+04  1.000000E+00  1.000000E+01
 1.400000E+04  1.000000E+00  1.000000E+01
 1.600000E+04  1.000000E+00  1.000000E+01
 1.800000E+04  1.000000E+00  1.000000E+01
 2.000000E+04  1.000000E+00  1.000000E+01
 0.000000E+00  0.000000E+00  1.500000E+01
 2.000000E+03  0.000000E+00  1.500000E+01
 4.000000E+03  0.000000E+00  1.500000E+01
 6.000000E+03  0.000000E+00  1.500000E+01
 8.000000E+03  0.000000E+00  1.500000E+01
 1.000000E+04  0.000000E+00  1.500000E+01
 1.200000E+04  0.000000E+00  1.500000E+01
 1.400000E+04  0.000000E+00  1.500000E+01
 1.600000E+04  0.000000E+00  1.500000E+01
 1.800000E+04  0.000000E+00  1.500000E+01
 2.000000E+04  0.000000E+00  1.500000E+01
 0.000000E+00  1.000000E+00  1.500000E+01
 2.000000E+03  1.000000E+00  1.500000E+01
 4.000000E+03  1.000000E+00  1.500000E+01
 6.000000E+03  1.000000E+00  1.500000E+01
 8.000000E+03  1.000000E+00  1.500000E+01
 1.000000E+04  1.000000E+00  1.500000E+01
 1.200000E+04  1.000000E+00  1.500000E+01
 1.400000E+04  1.000000E+00  1.500000E+01
 1.600000E+04  1.000000E+00  1.500000E+01
 1.800000E+04  1.000000E+00  1.500000E+01
 2.000000E+04  1.000000E+00  1.500000E+01
 0.000000E+00  0.000000E+00  2.000000E+01
 2.000000E+03  0.000000E+00  2.000000E+01
 4.000000E+03  0.000000E+00  2.000000E+01
 6.000000E+03  0.000000E+00  2.000000E+01
 8.000000E+03  0.000000E+00  2.000000E+01
 1.000000E+04  0.000000E+00  2.000000E+01
 1.200000E+04  0.000000E+00  2.000000E+01
 1.400000E+04  0.000000E+00  2.000000E+01
 1.600000E+04  0.000000E+00  2.000000E+01
 1.800000E+04  0.000000E+00  2.000000E+01
 2.000000E+04  0.000000E+00  2.000000E+01
 0.000000E+00  1.000000E+00  2.000000E+01
 2.000000E+03  1.000000E+00  2.000000E+01
 4.000000E+03  1.000000E+00  2.000000E+01
 6.000000E+03  1.000000E+00  2.000000E+01
 8.000000E+03  1.000000E+00  2.000000E+01
 1.000000E+04  1.000000E+00  2.000000E+01
 1.200000E+04  1.000000E+00  2.000000E+01
 1.400000E+04  1.000000E+00  2.000000E+01
 1.600000E+04  1.000000E+00  2.000000E+01
 1.800000E+04  1.000000E+00  2.000000E+01
 2.000000E+04  1.000000E+00  2.000000E+01
 0.000000E+00  0.000000E+00  2.500000E+01
 2.000000E+03  0.000000E+00  2.500000E+01
 4.000000E+03  0.000000E+00  2.500000E+01
 6.000000E+03  0.000000E+00  2.500000E+01
 8.000000E+03  0.000000E+00  2.500000E+01
 1.000000E+04  0.000000E+00  2.500000E+01
 1.200000E+04  0.000000E+00  2.500000E+01
 1.400000E+04  0.000000E+00  2.500000E+01
 1.600000E+04  0.000000E+00  2.500000E+01
 1.800000E+04  0.000000E+00  2.500000E+01
 2.000000E+04  0.000000E+00  2.500000E+01
 0.000000E+00  1.000000E+00  2.500000E+01
 2.000000E+03  1.000000E+00  2.500000E+01
 4.000000E+03  1.000000E+00  2.500000E+01
 6.000000E+03  1.000000E+00  2.500000E+01
 8.000000E+03  1.000000E+00  2.500000E+01
 1.000000E+04  1.000000E+00  2.500000E+01
 1.200000E+04  1.000000E+00  2.500000E+01
 1.400000E+04  1.000000E+00  2.500000E+01
 1.600000E+04  1.000000E+00  2.500000E+01
 1.800000E+04  1.000000E+00  2.500000E+01
 2.000000E+04  1.000000E+00  2.500000E+01
 0.000000E+00  0.000000E+00  3.000000E+01
 2.000000E+03  0.000000E+00  3.000000E+01
 4.000000E+03  0.000000E+00  3.000000E+01
 6.000000E+03  0.000000E+00  3.000000E+01
 8.000000E+03  0.000000E+00  3.000000E+01
 1.000000E+04  0.000000E+00  3.000000E+01
 1.200000E+04  0.000000E+00  3.000000E+01
 1.400000E+04  0.000000E+00  3.000000E+01
 1.600000E+04  0.000000E+00  3.000000E+01
 1.800000E+04  0.000000E+00  3.000000E+01
 2.000000E+04  0.000000E+00  3.000000E+01
 0.000000E+00  1.000000E+00  3.000000E+01
 2.000000E+03  1.000000E+00  3.000000E+01
 4.000000E+03  1.000000E+00  3.000000E+01
 6.000000E+03  1.000000E+00  3.000000E+01
 8.000000E+03  1.000000E+00  3.000000E+01
 1.000000E+04  1.000000E+00  3.000000E+01
 1.200000E+04  1.000000E+00  3.000000E+01
 1.400000E+04  1.000000E+00  3.000000E+01
 1.600000E+04  1.000000E+00  3.000000E+01
 1.800000E+04  1.000000E+00  3.000000E+01
 2.000000E+04  1.000000E+00  3.000000E+01
 0.000000E+00  0.000000E+00  3.500000E+01
 2.000000E+03  0.000000E+00  3.500000E+01
 4.000000E+03  0.000000E+00  3.500000E+01
 6.000000E+03  0.000000E+00  3.500000E+01
 8.000000E+03  0.000000E+00  3.500000E+01
 1.000000E+04  0.000000E+00  3.500000E+01
 1.200000E+04  0.000000E+00  3.500000E+01
 1.400000E+04  0.000000E+00  3.500000E+01
 1.600000E+04  0.000000E+00  3.500000E+01
 1.800000E+04  0.000000E+00  3.500000E+01
 2.000000E+04  0.000000E+00  3.500000E+01
 0.000000E+00  1.000000E+00  3.500000E+01
 2.000000E+03  1.000000E+00  3.500000E+01
 4.000000E+03  1.000000E+00  3.500000E+01
 6.000000E+03  1.000000E+00  3.500000E+01
 8.000000E+03  1.000000E+00  3.500000E+01
 1.000000E+04  1.000000E+00  3.500000E+01
 1.200000E+04  1.000000E+00  3.500000E+01
 1.400000E+04  1.000000E+00  3.500000E+01
 1.600000E+04  1.000000E+00  3.500000E+01
 1.800000E+04  1.000000E+00  3.500000E+01
 2.000000E+04  1.000000E+00  3.500000E+01
 0.000000E+00  0.000000E+00  4.000000E+01
 2.000000E+03  0.000000E+00  4.000000E+01
 4.000000E+03  0.000000E+00  4.000000E+01
 6.000000E+03  0.000000E+00  4.000000E+01
 8.000000E+03  0.000000E+00  4.000000E+01
 1.000000E+04  0.000000E+00  4.000000E+01
 1.200000E+04  0.000000E+00  4.000000E+01
 1.400000E+04  0.000000E+00  4.000000E+01
 1.600000E+04  0.000000E+00  4.000000E+01
 1.800000E+04  0.000000E+00  4.000000E+01
 2.000000E+04  0.000000E+00  4.000000E+01
 0.000000E+00  1.000000E+00  4.000000E+01
 2.000000E+03  1.000000E+00  4.000000E+01
 4.000000E+03  1.000000E+00  4.000000E+01
 6.000000E+03  1.000000E+00  4.000000E+01
 8.000000E+03  1.000000E+00  4.000000E+01
 1.000000E+04  1.000000E+00  4.000000E+01
 1.200000E+04  1.000000E+00  4.000000E+01
 1.400000E+04  1.000000E+00  4.000000E+01
 1.600000E+04  1.000000E+00  4.000000E+01
 1.800000E+04  1.000000E+00  4.000000E+01
 2.000000E+04  1.000000E+00  4.000000E+01
 0.000000E+00  0.000000E+00  4.500000E+01
 2.000000E+03  0.000000E+00  4.500000E+01
 4.000000E+03  0.000000E+00  4.500000E+01
 6.000000E+03  0.000000E+00  4.500000E+01
 8.000000E+03  0.000000E+00  4.500000E+01
 1.000000E+04  0.000000E+00  4.500000E+01
 1.200000E+04  0.000000E+00  4.500000E+01
 1.400000E+04  0.000000E+00  4.500000E+01
 1.600000E+04  0.000000E+00  4.500000E+01
 1.800000E+04  0.000000E+00  4.500000E+01
 2.000000E+04  0.000000E+00  4.500000E+01
 0.000000E+00  1.000000E+00  4.500000E+01
 2.000000E+03  1.000000E+00  4.500000E+01
 4.000000E+03  1.000000E+00  4.500000E+01
 6.000000E+03  1.000000E+00  4.500000E+01
 8.000000E+03  1.000000E+00  4.500000E+01
 1.000000E+04  1.000000E+00  4.500000E+01
 1.200000E+04  1.000000E+00  4.500000E+01
 1.400000E+04  1.000000E+00  4.500000E+01
 1.600000E+04  1.000000E+00  4.500000E+01
 1.800000E+04  1.000000E+00  4.500000E+01
 2.000000E+04  1.000000E+00  4.500000E+01
 0.000000E+00  0.000000E+00  5.000000E+01
 2.000000E+03  0.000000E+00  5.000000E+01
 4.000000E+03  0.000000E+00  5.000000E+01
 6.000000E+03  0.000000E+00  5.000000E+01
 8.000000E+03  0.000000E+00  5.000000E+01
 1.000000E+04  0.000000E+00  5.000000E+01
 1.200000E+04  0.000000E+00  5.000000E+01
 1.400000E+04  0.000000E+00  5.000000E+01
 1.600000E+04  0.000000E+00  5.000000E+01
 1.800000E+04  0.000000E+00  5.000000E+01
 2.000000E+04  0.000000E+00  5.000000E+01
 0.000000E+00  1.000000E+00  5.000000E+01
 2.000000E+03  1.000000E+00  5.000000E+01
 4.000000E+03  1.000000E+00  5.000000E+01
 6.000000E+03  1.000000E+00  5.000000E+01
[...]
CELL_DATA      200
SCALARS Porosity             float 1
LOOKUP_TABLE default
 4.377100E-01  4.377100E-01  4.377099E-01  4.377099E-01  4.377099E-01  4.377099E-01  4.377099E-01  4.377099E-01  4.377099E-01  4.377099E-01
 4.377100E-01  4.377100E-01  4.377099E-01  4.377099E-01  4.377099E-01  4.377099E-01  4.377099E-01  4.377099E-01  4.377099E-01  4.377099E-01
 4.377100E-01  4.377100E-01  4.377099E-01  4.377099E-01  4.377099E-01  4.377099E-01  4.377099E-01  4.377099E-01  4.377099E-01  4.377099E-01
 4.377100E-01  4.377100E-01  4.377099E-01  4.377099E-01  4.377099E-01  4.377099E-01  4.377099E-01  4.377099E-01  4.377099E-01  4.377099E-01
 4.377100E-01  4.377100E-01  4.377099E-01  4.377099E-01  4.377099E-01  4.377099E-01  4.377099E-01  4.377099E-01  4.377099E-01  4.377099E-01
 4.377100E-01  4.377100E-01  4.377099E-01  4.377099E-01  4.377099E-01  4.377099E-01  4.377099E-01  4.377099E-01  4.377099E-01  4.377099E-01
 4.377098E-01  4.377100E-01  4.377100E-01  4.377099E-01  4.377099E-01  4.377099E-01  4.377099E-01  4.377099E-01  4.377099E-01  4.377099E-01
 4.377098E-01  4.377100E-01  4.377100E-01  4.377099E-01  4.377099E-01  4.377099E-01  4.377099E-01  4.377099E-01  4.377099E-01  4.377099E-01
 4.377098E-01  4.377100E-01  4.377100E-01  4.377099E-01  4.377099E-01  4.377099E-01  4.377099E-01  4.377099E-01  4.377099E-01  4.377099E-01
 4.377098E-01  4.377100E-01  4.377100E-01  4.377099E-01  4.377099E-01  4.377099E-01  4.377099E-01  4.377099E-01  4.377099E-01  4.377099E-01
 4.377098E-01  4.377100E-01  4.377100E-01  4.377099E-01  4.377099E-01  4.377099E-01  4.377099E-01  4.377099E-01  4.377099E-01  4.377099E-01
 4.377098E-01  4.377100E-01  4.377100E-01  4.377099E-01  4.377099E-01  4.377099E-01  4.377099E-01  4.377099E-01  4.377099E-01  4.377099E-01
 4.377098E-01  4.377100E-01  4.377100E-01  4.377099E-01  4.377099E-01  4.377099E-01  4.377099E-01  4.377099E-01  4.377099E-01  4.377099E-01
 4.377098E-01  4.377100E-01  4.377100E-01  4.377099E-01  4.377099E-01  4.377099E-01  4.377099E-01  4.377099E-01  4.377099E-01  4.377099E-01
 4.377100E-01  4.377100E-01  4.377100E-01  4.377100E-01  4.377099E-01  4.377099E-01  4.377099E-01  4.377099E-01  4.377099E-01  4.377099E-01
 4.377100E-01  4.377100E-01  4.377100E-01  4.377100E-01  4.377099E-01  4.377099E-01  4.377099E-01  4.377099E-01  4.377099E-01  4.377099E-01
 4.377100E-01  4.377100E-01  4.377100E-01  4.377100E-01  4.377099E-01  4.377099E-01  4.377099E-01  4.377099E-01  4.377099E-01  4.377099E-01
 4.377100E-01  4.377100E-01  4.377100E-01  4.377100E-01  4.377099E-01  4.377099E-01  4.377099E-01  4.377099E-01  4.377099E-01  4.377099E-01
 4.377100E-01  4.377100E-01  4.377100E-01  4.377100E-01  4.377099E-01  4.377099E-01  4.377099E-01  4.377099E-01  4.377099E-01  4.377099E-01
 4.377100E-01  4.377100E-01  4.377100E-01  4.377100E-01  4.377100E-01  4.377099E-01  4.377099E-01  4.377099E-01  4.377099E-01  4.377099E-01


SCALARS Permeability         float 1
LOOKUP_TABLE default
 8.829804E-13  8.829803E-13  8.829803E-13  8.829802E-13  8.829802E-13  8.829802E-13  8.829802E-13  8.829802E-13  8.829802E-13  8.829802E-13
 8.829804E-13  8.829803E-13  8.829803E-13  8.829802E-13  8.829802E-13  8.829802E-13  8.829802E-13  8.829802E-13  8.829802E-13  8.829802E-13
 8.829804E-13  8.829803E-13  8.829803E-13  8.829802E-13  8.829802E-13  8.829802E-13  8.829802E-13  8.829802E-13  8.829802E-13  8.829802E-13
 8.829804E-13  8.829803E-13  8.829803E-13  8.829802E-13  8.829802E-13  8.829802E-13  8.829802E-13  8.829802E-13  8.829802E-13  8.829802E-13
 8.829804E-13  8.829803E-13  8.829803E-13  8.829803E-13  8.829802E-13  8.829802E-13  8.829802E-13  8.829802E-13  8.829802E-13  8.829802E-13
 8.829804E-13  8.829803E-13  8.829803E-13  8.829803E-13  8.829802E-13  8.829802E-13  8.829802E-13  8.829802E-13  8.829802E-13  8.829802E-13
 8.829793E-13  8.829803E-13  8.829803E-13  8.829803E-13  8.829802E-13  8.829802E-13  8.829802E-13  8.829802E-13  8.829802E-13  8.829802E-13
 8.829793E-13  8.829803E-13  8.829803E-13  8.829803E-13  8.829802E-13  8.829802E-13  8.829802E-13  8.829802E-13  8.829802E-13  8.829802E-13
 8.829793E-13  8.829803E-13  8.829803E-13  8.829803E-13  8.829802E-13  8.829802E-13  8.829802E-13  8.829802E-13  8.829802E-13  8.829802E-13
 8.829793E-13  8.829803E-13  8.829803E-13  8.829803E-13  8.829803E-13  8.829802E-13  8.829802E-13  8.829802E-13  8.829802E-13  8.829802E-13
 8.829793E-13  8.829803E-13  8.829803E-13  8.829803E-13  8.829803E-13  8.829802E-13  8.829802E-13  8.829802E-13  8.829802E-13  8.829802E-13
 8.829793E-13  8.829803E-13  8.829803E-13  8.829803E-13  8.829803E-13  8.829802E-13  8.829802E-13  8.829802E-13  8.829802E-13  8.829802E-13
 8.829793E-13  8.829803E-13  8.829803E-13  8.829803E-13  8.829803E-13  8.829802E-13  8.829802E-13  8.829802E-13  8.829802E-13  8.829802E-13
 8.829793E-13  8.829803E-13  8.829803E-13  8.829803E-13  8.829803E-13  8.829803E-13  8.829802E-13  8.829802E-13  8.829802E-13  8.829802E-13
 8.829804E-13  8.829803E-13  8.829803E-13  8.829803E-13  8.829803E-13  8.829803E-13  8.829802E-13  8.829802E-13  8.829802E-13  8.829802E-13
 8.829804E-13  8.829803E-13  8.829803E-13  8.829803E-13  8.829803E-13  8.829803E-13  8.829803E-13  8.829802E-13  8.829802E-13  8.829802E-13
 8.829804E-13  8.829803E-13  8.829803E-13  8.829803E-13  8.829803E-13  8.829803E-13  8.829803E-13  8.829802E-13  8.829802E-13  8.829802E-13
 8.829804E-13  8.829804E-13  8.829803E-13  8.829803E-13  8.829803E-13  8.829803E-13  8.829803E-13  8.829803E-13  8.829802E-13  8.829802E-13
 8.829804E-13  8.829804E-13  8.829803E-13  8.829803E-13  8.829803E-13  8.829803E-13  8.829803E-13  8.829803E-13  8.829803E-13  8.829802E-13
 8.829804E-13  8.829804E-13  8.829803E-13  8.829803E-13  8.829803E-13  8.829803E-13  8.829803E-13  8.829803E-13  8.829803E-13  8.829803E-13


SCALARS Liquid_Pressure      float 1
LOOKUP_TABLE default
 8.338805E+06  7.966198E+06  7.792005E+06  7.687767E+06  7.619904E+06  7.573801E+06  7.541366E+06  7.517574E+06  7.499177E+06  7.484057E+06
 8.293637E+06  7.921035E+06  7.746846E+06  7.642611E+06  7.574749E+06  7.528648E+06  7.496213E+06  7.472421E+06  7.454026E+06  7.438906E+06
 8.248475E+06  7.875873E+06  7.701688E+06  7.597456E+06  7.529596E+06  7.483496E+06  7.451062E+06  7.427271E+06  7.408875E+06  7.393756E+06
 8.203319E+06  7.830712E+06  7.656532E+06  7.552302E+06  7.484444E+06  7.438345E+06  7.405912E+06  7.382121E+06  7.363726E+06  7.348607E+06
 8.158169E+06  7.785552E+06  7.611377E+06  7.507149E+06  7.439293E+06  7.393195E+06  7.360763E+06  7.336973E+06  7.318578E+06  7.303460E+06
 8.113025E+06  7.740394E+06  7.566223E+06  7.461998E+06  7.394143E+06  7.348046E+06  7.315615E+06  7.291826E+06  7.273432E+06  7.258313E+06
 8.067888E+06  7.695237E+06  7.521070E+06  7.416848E+06  7.348995E+06  7.302899E+06  7.270469E+06  7.246680E+06  7.228286E+06  7.213169E+06
 8.022744E+06  7.650081E+06  7.475918E+06  7.371699E+06  7.303848E+06  7.257753E+06  7.225323E+06  7.201535E+06  7.183142E+06  7.168025E+06
 7.977594E+06  7.604926E+06  7.430768E+06  7.326551E+06  7.258702E+06  7.212609E+06  7.180180E+06  7.156392E+06  7.137999E+06  7.122882E+06
 7.932438E+06  7.559773E+06  7.385619E+06  7.281405E+06  7.213557E+06  7.167465E+06  7.135037E+06  7.111250E+06  7.092858E+06  7.077741E+06
 7.887277E+06  7.514621E+06  7.340472E+06  7.236260E+06  7.168414E+06  7.122323E+06  7.089896E+06  7.066109E+06  7.047718E+06  7.032601E+06
 7.842110E+06  7.469470E+06  7.295325E+06  7.191116E+06  7.123272E+06  7.077182E+06  7.044755E+06  7.020970E+06  7.002579E+06  6.987463E+06
 7.796936E+06  7.424320E+06  7.250180E+06  7.145973E+06  7.078131E+06  7.032042E+06  6.999617E+06  6.975832E+06  6.957441E+06  6.942325E+06
 7.751757E+06  7.379172E+06  7.205036E+06  7.100832E+06  7.032991E+06  6.986904E+06  6.954479E+06  6.930695E+06  6.912304E+06  6.897189E+06
 7.706572E+06  7.334025E+06  7.159893E+06  7.055692E+06  6.987853E+06  6.941767E+06  6.909343E+06  6.885559E+06  6.867169E+06  6.852054E+06
 7.661393E+06  7.288879E+06  7.114752E+06  7.010553E+06  6.942716E+06  6.896631E+06  6.864208E+06  6.840424E+06  6.822035E+06  6.806921E+06
 7.616220E+06  7.243735E+06  7.069612E+06  6.965416E+06  6.897580E+06  6.851496E+06  6.819074E+06  6.795291E+06  6.776902E+06  6.761788E+06
 7.571053E+06  7.198591E+06  7.024473E+06  6.920280E+06  6.852446E+06  6.806363E+06  6.773941E+06  6.750159E+06  6.731771E+06  6.716657E+06
 7.525892E+06  7.153450E+06  6.979335E+06  6.875145E+06  6.807313E+06  6.761231E+06  6.728810E+06  6.705029E+06  6.686641E+06  6.671528E+06
 7.480737E+06  7.108309E+06  6.934199E+06  6.830011E+06  6.762181E+06  6.716100E+06  6.683680E+06  6.659899E+06  6.641512E+06  6.626399E+06


SCALARS Temperature          float 1
LOOKUP_TABLE default
 1.500491E+02  1.500271E+02  1.500168E+02  1.500106E+02  1.500066E+02  1.500038E+02  1.500019E+02  1.500005E+02  1.499994E+02  1.499985E+02
 1.500491E+02  1.500271E+02  1.500168E+02  1.500106E+02  1.500066E+02  1.500038E+02  1.500019E+02  1.500005E+02  1.499994E+02  1.499985E+02
 1.500490E+02  1.500271E+02  1.500168E+02  1.500106E+02  1.500066E+02  1.500038E+02  1.500019E+02  1.500005E+02  1.499994E+02  1.499985E+02
 1.500490E+02  1.500271E+02  1.500168E+02  1.500106E+02  1.500066E+02  1.500038E+02  1.500019E+02  1.500005E+02  1.499994E+02  1.499985E+02
 1.500490E+02  1.500271E+02  1.500168E+02  1.500106E+02  1.500066E+02  1.500038E+02  1.500019E+02  1.500005E+02  1.499994E+02  1.499985E+02
 1.500490E+02  1.500271E+02  1.500168E+02  1.500106E+02  1.500066E+02  1.500039E+02  1.500019E+02  1.500005E+02  1.499994E+02  1.499985E+02
 1.500488E+02  1.500271E+02  1.500168E+02  1.500106E+02  1.500066E+02  1.500039E+02  1.500019E+02  1.500005E+02  1.499994E+02  1.499985E+02
 1.500488E+02  1.500271E+02  1.500168E+02  1.500106E+02  1.500066E+02  1.500039E+02  1.500019E+02  1.500005E+02  1.499994E+02  1.499985E+02
 1.500489E+02  1.500271E+02  1.500168E+02  1.500106E+02  1.500066E+02  1.500039E+02  1.500019E+02  1.500005E+02  1.499994E+02  1.499985E+02
 1.500489E+02  1.500271E+02  1.500168E+02  1.500106E+02  1.500066E+02  1.500039E+02  1.500019E+02  1.500005E+02  1.499994E+02  1.499985E+02
 1.500489E+02  1.500271E+02  1.500168E+02  1.500106E+02  1.500066E+02  1.500039E+02  1.500019E+02  1.500005E+02  1.499994E+02  1.499985E+02
 1.500489E+02  1.500272E+02  1.500168E+02  1.500106E+02  1.500066E+02  1.500039E+02  1.500019E+02  1.500005E+02  1.499994E+02  1.499985E+02
 1.500490E+02  1.500272E+02  1.500168E+02  1.500106E+02  1.500066E+02  1.500039E+02  1.500019E+02  1.500005E+02  1.499994E+02  1.499985E+02
 1.500490E+02  1.500272E+02  1.500168E+02  1.500106E+02  1.500066E+02  1.500039E+02  1.500019E+02  1.500005E+02  1.499994E+02  1.499985E+02
 1.500493E+02  1.500272E+02  1.500168E+02  1.500106E+02  1.500066E+02  1.500039E+02  1.500019E+02  1.500005E+02  1.499994E+02  1.499985E+02
 1.500493E+02  1.500272E+02  1.500168E+02  1.500106E+02  1.500066E+02  1.500039E+02  1.500019E+02  1.500005E+02  1.499994E+02  1.499985E+02
 1.500493E+02  1.500272E+02  1.500168E+02  1.500106E+02  1.500066E+02  1.500039E+02  1.500019E+02  1.500005E+02  1.499994E+02  1.499985E+02
 1.500492E+02  1.500272E+02  1.500168E+02  1.500106E+02  1.500066E+02  1.500039E+02  1.500019E+02  1.500005E+02  1.499994E+02  1.499985E+02
 1.500492E+02  1.500272E+02  1.500168E+02  1.500106E+02  1.500066E+02  1.500039E+02  1.500019E+02  1.500005E+02  1.499994E+02  1.499985E+02
 1.500492E+02  1.500272E+02  1.500168E+02  1.500106E+02  1.500066E+02  1.500039E+02  1.500019E+02  1.500005E+02  1.499994E+02  1.499985E+02


SCALARS pH                   float 1
LOOKUP_TABLE default
 6.144464E+00  6.144432E+00  6.144416E+00  6.144407E+00  6.144401E+00  6.144397E+00  6.144394E+00  6.144392E+00  6.144391E+00  6.144389E+00
 6.144464E+00  6.144432E+00  6.144417E+00  6.144407E+00  6.144401E+00  6.144397E+00  6.144394E+00  6.144392E+00  6.144391E+00  6.144389E+00
 6.144464E+00  6.144432E+00  6.144417E+00  6.144407E+00  6.144401E+00  6.144397E+00  6.144394E+00  6.144392E+00  6.144391E+00  6.144389E+00
 6.144464E+00  6.144432E+00  6.144417E+00  6.144407E+00  6.144401E+00  6.144397E+00  6.144394E+00  6.144392E+00  6.144391E+00  6.144389E+00
 6.144464E+00  6.144432E+00  6.144417E+00  6.144407E+00  6.144401E+00  6.144397E+00  6.144395E+00  6.144392E+00  6.144391E+00  6.144389E+00
 6.144464E+00  6.144432E+00  6.144417E+00  6.144407E+00  6.144401E+00  6.144397E+00  6.144395E+00  6.144392E+00  6.144391E+00  6.144389E+00
 6.144472E+00  6.144432E+00  6.144417E+00  6.144407E+00  6.144401E+00  6.144397E+00  6.144395E+00  6.144392E+00  6.144391E+00  6.144389E+00
 6.144472E+00  6.144432E+00  6.144417E+00  6.144407E+00  6.144401E+00  6.144397E+00  6.144395E+00  6.144392E+00  6.144391E+00  6.144389E+00
 6.144472E+00  6.144432E+00  6.144417E+00  6.144407E+00  6.144401E+00  6.144397E+00  6.144395E+00  6.144392E+00  6.144391E+00  6.144390E+00
 6.144472E+00  6.144432E+00  6.144417E+00  6.144407E+00  6.144401E+00  6.144397E+00  6.144395E+00  6.144392E+00  6.144391E+00  6.144390E+00
 6.144472E+00  6.144432E+00  6.144417E+00  6.144407E+00  6.144401E+00  6.144397E+00  6.144395E+00  6.144392E+00  6.144391E+00  6.144390E+00
 6.144472E+00  6.144432E+00  6.144417E+00  6.144407E+00  6.144401E+00  6.144397E+00  6.144395E+00  6.144392E+00  6.144391E+00  6.144390E+00
 6.144472E+00  6.144432E+00  6.144417E+00  6.144407E+00  6.144402E+00  6.144397E+00  6.144395E+00  6.144392E+00  6.144391E+00  6.144390E+00
 6.144472E+00  6.144432E+00  6.144417E+00  6.144407E+00  6.144402E+00  6.144397E+00  6.144395E+00  6.144392E+00  6.144391E+00  6.144390E+00
 6.144465E+00  6.144432E+00  6.144417E+00  6.144407E+00  6.144402E+00  6.144397E+00  6.144395E+00  6.144392E+00  6.144391E+00  6.144390E+00
 6.144465E+00  6.144432E+00  6.144417E+00  6.144408E+00  6.144402E+00  6.144397E+00  6.144395E+00  6.144393E+00  6.144391E+00  6.144390E+00
 6.144465E+00  6.144432E+00  6.144417E+00  6.144408E+00  6.144402E+00  6.144397E+00  6.144395E+00  6.144393E+00  6.144391E+00  6.144390E+00
 6.144465E+00  6.144432E+00  6.144417E+00  6.144408E+00  6.144402E+00  6.144397E+00  6.144395E+00  6.144393E+00  6.144391E+00  6.144390E+00
 6.144465E+00  6.144432E+00  6.144417E+00  6.144408E+00  6.144402E+00  6.144397E+00  6.144395E+00  6.144393E+00  6.144391E+00  6.144390E+00
 6.144465E+00  6.144432E+00  6.144417E+00  6.144408E+00  6.144402E+00  6.144398E+00  6.144395E+00  6.144393E+00  6.144391E+00  6.144390E+00


SCALARS Total_H+             float 1
LOOKUP_TABLE default
-3.037747E-03 -3.038497E-03 -3.038852E-03 -3.039066E-03 -3.039206E-03 -3.039301E-03 -3.039368E-03 -3.039417E-03 -3.039454E-03 -3.039485E-03
-3.037747E-03 -3.038496E-03 -3.038852E-03 -3.039065E-03 -3.039205E-03 -3.039300E-03 -3.039367E-03 -3.039416E-03 -3.039454E-03 -3.039484E-03
-3.037747E-03 -3.038496E-03 -3.038851E-03 -3.039064E-03 -3.039204E-03 -3.039300E-03 -3.039367E-03 -3.039416E-03 -3.039453E-03 -3.039483E-03
-3.037746E-03 -3.038495E-03 -3.038850E-03 -3.039064E-03 -3.039204E-03 -3.039299E-03 -3.039366E-03 -3.039415E-03 -3.039453E-03 -3.039483E-03
-3.037746E-03 -3.038494E-03 -3.038850E-03 -3.039063E-03 -3.039203E-03 -3.039298E-03 -3.039365E-03 -3.039414E-03 -3.039452E-03 -3.039482E-03
-3.037746E-03 -3.038493E-03 -3.038849E-03 -3.039063E-03 -3.039202E-03 -3.039298E-03 -3.039365E-03 -3.039414E-03 -3.039451E-03 -3.039482E-03
-3.037765E-03 -3.038493E-03 -3.038848E-03 -3.039062E-03 -3.039202E-03 -3.039297E-03 -3.039364E-03 -3.039413E-03 -3.039451E-03 -3.039481E-03
-3.037764E-03 -3.038492E-03 -3.038848E-03 -3.039061E-03 -3.039201E-03 -3.039296E-03 -3.039364E-03 -3.039413E-03 -3.039450E-03 -3.039480E-03
-3.037763E-03 -3.038491E-03 -3.038847E-03 -3.039061E-03 -3.039201E-03 -3.039296E-03 -3.039363E-03 -3.039412E-03 -3.039450E-03 -3.039480E-03
-3.037762E-03 -3.038491E-03 -3.038846E-03 -3.039060E-03 -3.039200E-03 -3.039295E-03 -3.039362E-03 -3.039411E-03 -3.039449E-03 -3.039479E-03
-3.037761E-03 -3.038490E-03 -3.038846E-03 -3.039059E-03 -3.039199E-03 -3.039295E-03 -3.039362E-03 -3.039411E-03 -3.039448E-03 -3.039479E-03
-3.037760E-03 -3.038489E-03 -3.038845E-03 -3.039059E-03 -3.039199E-03 -3.039294E-03 -3.039361E-03 -3.039410E-03 -3.039448E-03 -3.039478E-03
-3.037759E-03 -3.038488E-03 -3.038844E-03 -3.039058E-03 -3.039198E-03 -3.039293E-03 -3.039361E-03 -3.039410E-03 -3.039447E-03 -3.039478E-03
-3.037758E-03 -3.038488E-03 -3.038844E-03 -3.039057E-03 -3.039197E-03 -3.039293E-03 -3.039360E-03 -3.039409E-03 -3.039447E-03 -3.039477E-03
-3.037732E-03 -3.038487E-03 -3.038843E-03 -3.039057E-03 -3.039197E-03 -3.039292E-03 -3.039359E-03 -3.039408E-03 -3.039446E-03 -3.039476E-03
-3.037732E-03 -3.038486E-03 -3.038842E-03 -3.039056E-03 -3.039196E-03 -3.039292E-03 -3.039359E-03 -3.039408E-03 -3.039445E-03 -3.039476E-03
-3.037732E-03 -3.038486E-03 -3.038841E-03 -3.039055E-03 -3.039196E-03 -3.039291E-03 -3.039358E-03 -3.039407E-03 -3.039445E-03 -3.039475E-03
-3.037732E-03 -3.038485E-03 -3.038841E-03 -3.039055E-03 -3.039195E-03 -3.039290E-03 -3.039358E-03 -3.039407E-03 -3.039444E-03 -3.039475E-03
-3.037731E-03 -3.038484E-03 -3.038840E-03 -3.039054E-03 -3.039194E-03 -3.039290E-03 -3.039357E-03 -3.039406E-03 -3.039444E-03 -3.039474E-03
-3.037731E-03 -3.038483E-03 -3.038839E-03 -3.039054E-03 -3.039194E-03 -3.039289E-03 -3.039356E-03 -3.039405E-03 -3.039443E-03 -3.039473E-03


SCALARS Total_SiO2(aq)       float 1
LOOKUP_TABLE default
 1.039627E-02  1.039438E-02  1.039349E-02  1.039296E-02  1.039262E-02  1.039239E-02  1.039222E-02  1.039210E-02  1.039201E-02  1.039193E-02
 1.039627E-02  1.039438E-02  1.039349E-02  1.039296E-02  1.039262E-02  1.039239E-02  1.039222E-02  1.039210E-02  1.039201E-02  1.039193E-02
 1.039627E-02  1.039438E-02  1.039349E-02  1.039296E-02  1.039262E-02  1.039239E-02  1.039222E-02  1.039210E-02  1.039201E-02  1.039193E-02
 1.039627E-02  1.039438E-02  1.039349E-02  1.039296E-02  1.039262E-02  1.039239E-02  1.039222E-02  1.039210E-02  1.039201E-02  1.039193E-02
 1.039627E-02  1.039438E-02  1.039349E-02  1.039296E-02  1.039262E-02  1.039239E-02  1.039222E-02  1.039210E-02  1.039201E-02  1.039193E-02
 1.039627E-02  1.039438E-02  1.039350E-02  1.039296E-02  1.039262E-02  1.039239E-02  1.039222E-02  1.039210E-02  1.039201E-02  1.039193E-02
 1.039648E-02  1.039438E-02  1.039350E-02  1.039297E-02  1.039262E-02  1.039239E-02  1.039222E-02  1.039210E-02  1.039201E-02  1.039193E-02
 1.039648E-02  1.039438E-02  1.039350E-02  1.039297E-02  1.039262E-02  1.039239E-02  1.039222E-02  1.039210E-02  1.039201E-02  1.039193E-02
 1.039648E-02  1.039438E-02  1.039350E-02  1.039297E-02  1.039262E-02  1.039239E-02  1.039222E-02  1.039210E-02  1.039201E-02  1.039193E-02
 1.039649E-02  1.039439E-02  1.039350E-02  1.039297E-02  1.039262E-02  1.039239E-02  1.039222E-02  1.039210E-02  1.039201E-02  1.039193E-02
 1.039649E-02  1.039439E-02  1.039350E-02  1.039297E-02  1.039262E-02  1.039239E-02  1.039222E-02  1.039210E-02  1.039201E-02  1.039193E-02
 1.039649E-02  1.039439E-02  1.039350E-02  1.039297E-02  1.039262E-02  1.039239E-02  1.039222E-02  1.039210E-02  1.039201E-02  1.039193E-02
 1.039649E-02  1.039439E-02  1.039350E-02  1.039297E-02  1.039262E-02  1.039239E-02  1.039222E-02  1.039210E-02  1.039201E-02  1.039193E-02
 1.039649E-02  1.039439E-02  1.039350E-02  1.039297E-02  1.039262E-02  1.039239E-02  1.039222E-02  1.039210E-02  1.039201E-02  1.039193E-02
 1.039629E-02  1.039439E-02  1.039350E-02  1.039297E-02  1.039262E-02  1.039239E-02  1.039222E-02  1.039210E-02  1.039201E-02  1.039193E-02
 1.039629E-02  1.039439E-02  1.039350E-02  1.039297E-02  1.039262E-02  1.039239E-02  1.039222E-02  1.039210E-02  1.039201E-02  1.039193E-02
 1.039628E-02  1.039439E-02  1.039350E-02  1.039297E-02  1.039262E-02  1.039239E-02  1.039222E-02  1.039210E-02  1.039201E-02  1.039193E-02
 1.039628E-02  1.039439E-02  1.039350E-02  1.039297E-02  1.039262E-02  1.039239E-02  1.039222E-02  1.039210E-02  1.039201E-02  1.039193E-02
 1.039628E-02  1.039439E-02  1.039350E-02  1.039297E-02  1.039262E-02  1.039239E-02  1.039222E-02  1.039210E-02  1.039201E-02  1.039193E-02