# vtk DataFile Version 2.0
PFLOTRAN output
ASCII
DATASET UNSTRUCTURED_GRID
POINTS          462 float
 0.000000E+00  0.000000E+00  0.000000E+00
 1.000000E+01  0.000000E+00  0.000000E+00
 2.000000E+01  0.000000E+00  0.000000E+00
 3.000000E+01  0.000000E+00  0.000000E+00
 4.000000E+01  0.000000E+00  0.000000E+00
 5.000000E+01  0.000000E+00  0.000000E+00
 6.000000E+01  0.000000E+00  0.000000E+00
 7.000000E+01  0.000000E+00  0.000000E+00
 8.000000E+01  0.000000E+00  0.000000E+00
 9.000000E+01  0.000000E+00  0.000000E+00
 1.000000E+02  0.000000E+00  0.000000E+00
 0.000000E+00  1.000000E+00  0.000000E+00
 1.000000E+01  1.000000E+00  0.000000E+00
 2.000000E+01  1.000000E+00  0.000000E+00
 3.000000E+01  1.000000E+00  0.000000E+00
 4.000000E+01  1.000000E+00  0.000000E+00
 5.000000E+01  1.000000E+00  0.000000E+00
 6.000000E+01  1.000000E+00  0.000000E+00
 7.000000E+01  1.000000E+00  0.000000E+00
 8.000000E+01  1.000000E+00  0.000000E+00
 9.000000E+01  1.000000E+00  0.000000E+00
 1.000000E+02  1.000000E+00  0.000000E+00
 0.000000E+00  0.000000E+00  5.000000E+00
 1.000000E+01  0.000000E+00  5.000000E+00
 2.000000E+01  0.000000E+00  5.000000E+00
 3.000000E+01  0.000000E+00  5.000000E+00
 4.000000E+01  0.000000E+00  5.000000E+00
 5.000000E+01  0.000000E+00  5.000000E+00
 6.000000E+01  0.000000E+00  5.000000E+00
 7.000000E+01  0.000000E+00  5.000000E+00
 8.000000E+01  0.000000E+00  5.000000E+00
 9.000000E+01  0.000000E+00  5.000000E+00
 1.000000E+02  0.000000E+00  5.000000E+00
 0.000000E+00  1.000000E+00  5.000000E+00
 1.000000E+01  1.000000E+00  5.000000E+00
 2.000000E+01  1.000000E+00  5.000000E+00
 3.000000E+01  1.000000E+00  5.000000E+00
 4.000000E+01  1.000000E+00  5.000000E+00
 5.000000E+01  1.000000E+00  5.000000E+00
 6.000000E+01  1.000000E+00  5.000000E+00
 7.000000E+01  1.000000E+00  5.000000E+00
 8.000000E+01  1.000000E+00  5.000000E+00
 9.000000E+01  1.000000E+00  5.000000E+00
 1.000000E+02  1.000000E+00  5.000000E+00
 0.000000E+00  0.000000E+00  1.000000E+01
 1.000000E+01  0.000000E+00  1.000000E+01
 2.000000E+01  0.000000E+00  1.000000E+01
 3.000000E+01  0.000000E+00  1.000000E+01
 4.000000E+01  0.000000E+00  1.000000E+01
 5.000000E+01  0.000000E+00  1.000000E+01
 6.000000E+01  0.000000E+00  1.000000E+01
 7.000000E+01  0.000000E+00  1.000000E+01
 8.000000E+01  0.000000E+00  1.000000E+01
 9.000000E+01  0.000000E+00  1.000000E+01
 1.000000E+02  0.000000E+00  1.000000E+01
 0.000000E+00  1.000000E+00  1.000000E+01
 1.000000E+01  1.000000E+00  1.000000E+01
 2.000000E+01  1.000000E+00  1.000000E+01
 3.000000E+01  1.000000E+00  1.000000E+01
 4.000000E+01  1.000000E+00  1.000000E+01
 5.000000E+01  1.000000E+00  1.000000E+01
 6.000000E+01  1.000000E+00  1.000000E+01
 7.000000E+01  1.000000E+00  1.000000E+01
 8.000000E+01  1.000000E+00  1.000000E+01
 9.000000E+01  1.000000E+00  1.000000E+01
 1.000000E+02  1.000000E+00  1.000000E+01
 0.000000E+00  0.000000E+00  1.500000E+01
 1.000000E+01  0.000000E+00  1.500000E+01
 2.000000E+01  0.000000E+00  1.500000E+01
 3.000000E+01  0.000000E+00  1.500000E+01
 4.000000E+01  0.000000E+00  1.500000E+01
 5.000000E+01  0.000000E+00  1.500000E+01
 6.000000E+01  0.000000E+00  1.500000E+01
 7.000000E+01  0.000000E+00  1.500000E+01
 8.000000E+01  0.000000E+00  1.500000E+01
 9.000000E+01  0.000000E+00  1.500000E+01
 1.000000E+02  0.000000E+00  1.500000E+01
 0.000000E+00  1.000000E+00  1.500000E+01
 1.000000E+01  1.000000E+00  1.500000E+01
 2.000000E+01  1.000000E+00  1.500000E+01
 3.000000E+01  1.000000E+00  1.500000E+01
 4.000000E+01  1.000000E+00  1.500000E+01
 5.000000E+01  1.000000E+00  1.500000E+01
 6.000000E+01  1.000000E+00  1.500000E+01
 7.000000E+01  1.000000E+00  1.500000E+01
 8.000000E+01  1.000000E+00  1.500000E+01
 9.000000E+01  1.000000E+00  1.500000E+01
 1.000000E+02  1.000000E+00  1.500000E+01
 0.000000E+00  0.000000E+00  2.000000E+01
 1.000000E+01  0.000000E+00  2.000000E+01
 2.000000E+01  0.000000E+00  2.000000E+01
 3.000000E+01  0.000000E+00  2.000000E+01
 4.000000E+01  0.000000E+00  2.000000E+01
 5.000000E+01  0.000000E+00  2.000000E+01
 6.000000E+01  0.000000E+00  2.000000E+01
 7.000000E+01  0.000000E+00  2.000000E+01
 8.000000E+01  0.000000E+00  2.000000E+01
 9.000000E+01  0.000000E+00  2.000000E+01
 1.000000E+02  0.000000E+00  2.000000E+01
 0.000000E+00  1.000000E+00  2.000000E+01
 1.000000E+01  1.000000E+00  2.000000E+01
 2.000000E+01  1.000000E+00  2.000000E+01
 3.000000E+01  1.000000E+00  2.000000E+01
 4.000000E+01  1.000000E+00  2.000000E+01
 5.000000E+01  1.000000E+00  2.000000E+01
 6.000000E+01  1.000000E+00  2.000000E+01
 7.000000E+01  1.000000E+00  2.000000E+01
 8.000000E+01  1.000000E+00  2.000000E+01
 9.000000E+01  1.000000E+00  2.000000E+01
 1.000000E+02  1.000000E+00  2.000000E+01
 0.000000E+00  0.000000E+00  2.500000E+01
 1.000000E+01  0.000000E+00  2.500000E+01
 2.000000E+01  0.000000E+00  2.500000E+01
 3.000000E+01  0.000000E+00  2.500000E+01
 4.000000E+01  0.000000E+00  2.500000E+01
 5.000000E+01  0.000000E+00  2.500000E+01
 6.000000E+01  0.000000E+00  2.500000E+01
 7.000000E+01  0.000000E+00  2.500000E+01
 8.000000E+01  0.000000E+00  2.500000E+01
 9.000000E+01  0.000000E+00  2.500000E+01
 1.000000E+02  0.000000E+00  2.500000E+01
 0.000000E+00  1.000000E+00  2.500000E+01
 1.000000E+01  1.000000E+00  2.500000E+01
 2.000000E+01  1.000000E+00  2.500000E+01
 3.000000E+01  1.000000E+00  2.500000E+01
 4.000000E+01  1.000000E+00  2.500000E+01
 5.000000E+01  1.000000E+00  2.500000E+01
 6.000000E+01  1.000000E+00  2.500000E+01
 7.000000E+01  1.000000E+00  2.500000E+01
 8.000000E+01  1.000000E+00  2.500000E+01
 9.000000E+01  1.000000E+00  2.500000E+01
 1.000000E+02  1.000000E+00  2.500000E+01
 0.000000E+00  0.000000E+00  3.000000E+01
 1.000000E+01  0.000000E+00  3.000000E+01
 2.000000E+01  0.000000E+00  3.000000E+01
 3.000000E+01  0.000000E+00  3.000000E+01
 4.000000E+01  0.000000E+00  3.000000E+01
 5.000000E+01  0.000000E+00  3.000000E+01
 6.000000E+01  0.000000E+00  3.000000E+01
 7.000000E+01  0.000000E+00  3.000000E+01
 8.000000E+01  0.000000E+00  3.000000E+01
 9.000000E+01  0.000000E+00  3.000000E+01
 1.000000E+02  0.000000E+00  3.000000E+01
 0.000000E+00  1.000000E+00  3.000000E+01
 1.000000E+01  1.000000E+00  3.000000E+01
 2.000000E+01  1.000000E+00  3.000000E+01
 3.000000E+01  1.000000E+00  3.000000E+01
 4.000000E+01  1.000000E+00  3.000000E+01
 5.000000E+01  1.000000E+00  3.000000E+01
 6.000000E+01  1.000000E+00  3.000000E+01
 7.000000E+01  1.000000E+00  3.000000E+01
 8.000000E+01  1.000000E+00  3.000000E+01
 9.000000E+01  1.000000E+00  3.000000E+01
 1.000000E+02  1.000000E+00  3.000000E+01
 0.000000E+00  0.000000E+00  3.500000E+01
 1.000000E+01  0.000000E+00  3.500000E+01
 2.000000E+01  0.000000E+00  3.500000E+01
 3.000000E+01  0.000000E+00  3.500000E+01
 4.000000E+01  0.000000E+00  3.500000E+01
 5.000000E+01  0.000000E+00  3.500000E+01
 6.000000E+01  0.000000E+00  3.500000E+01
 7.000000E+01  0.000000E+00  3.500000E+01
 8.000000E+01  0.000000E+00  3.500000E+01
 9.000000E+01  0.000000E+00  3.500000E+01
 1.000000E+02  0.000000E+00  3.500000E+01
 0.000000E+00  1.000000E+00  3.500000E+01
 1.000000E+01  1.000000E+00  3.500000E+01
 2.000000E+01  1.000000E+00  3.500000E+01
 3.000000E+01  1.000000E+00  3.500000E+01
 4.000000E+01  1.000000E+00  3.500000E+01
 5.000000E+01  1.000000E+00  3.500000E+01
 6.000000E+01  1.000000E+00  3.500000E+01
 7.000000E+01  1.000000E+00  3.500000E+01
 8.000000E+01  1.000000E+00  3.500000E+01
 9.000000E+01  1.000000E+00  3.500000E+01
 1.000000E+02  1.000000E+00  3.500000E+01
 0.000000E+00  0.000000E+00  4.000000E+01
 1.000000E+01  0.000000E+00  4.000000E+01
 2.000000E+01  0.000000E+00  4.000000E+01
 3.000000E+01  0.000000E+00  4.000000E+01
 4.000000E+01  0.000000E+00  4.000000E+01
 5.000000E+01  0.000000E+00  4.000000E+01
 6.000000E+01  0.000000E+00  4.000000E+01
 7.000000E+01  0.000000E+00  4.000000E+01
 8.000000E+01  0.000000E+00  4.000000E+01
 9.000000E+01  0.000000E+00  4.000000E+01
 1.000000E+02  0.000000E+00  4.000000E+01
 0.000000E+00  1.000000E+00  4.000000E+01
 1.000000E+01  1.000000E+00  4.000000E+01
 2.000000E+01  1.000000E+00  4.000000E+01
 3.000000E+01  1.000000E+00  4.000000E+01
 4.000000E+01  1.000000E+00  4.000000E+01
 5.000000E+01  1.000000E+00  4.000000E+01
 6.000000E+01  1.000000E+00  4.000000E+01
 7.000000E+01  1.000000E+00  4.000000E+01
 8.000000E+01  1.000000E+00  4.000000E+01
 9.000000E+01  1.000000E+00  4.000000E+01
 1.000000E+02  1.000000E+00  4.000000E+01
 0.000000E+00  0.000000E+00  4.500000E+01
 1.000000E+01  0.000000E+00  4.500000E+01
 2.000000E+01  0.000000E+00  4.500000E+01
 3.000000E+01  0.000000E+00  4.500000E+01
 4.000000E+01  0.000000E+00  4.500000E+01
 5.000000E+01  0.000000E+00  4.500000E+01
 6.000000E+01  0.000000E+00  4.500000E+01
 7.000000E+01  0.000000E+00  4.500000E+01
 8.000000E+01  0.000000E+00  4.500000E+01
 9.000000E+01  0.000000E+00  4.500000E+01
 1.000000E+02  0.000000E+00  4.500000E+01
 0.000000E+00  1.000000E+00  4.500000E+01
 1.000000E+01  1.000000E+00  4.500000E+01
 2.000000E+01  1.000000E+00  4.500000E+01
 3.000000E+01  1.000000E+00  4.500000E+01
 4.000000E+01  1.000000E+00  4.500000E+01
 5.000000E+01  1.000000E+00  4.500000E+01
 6.000000E+01  1.000000E+00  4.500000E+01
 7.000000E+01  1.000000E+00  4.500000E+01
 8.000000E+01  1.000000E+00  4.500000E+01
 9.000000E+01  1.000000E+00  4.500000E+01
 1.000000E+02  1.000000E+00  4.500000E+01
 0.000000E+00  0.000000E+00  5.000000E+01
 1.000000E+01  0.000000E+00  5.000000E+01
 2.000000E+01  0.000000E+00  5.000000E+01
 3.000000E+01  0.000000E+00  5.000000E+01
 4.000000E+01  0.000000E+00  5.000000E+01
 5.000000E+01  0.000000E+00  5.000000E+01
 6.000000E+01  0.000000E+00  5.000000E+01
 7.000000E+01  0.000000E+00  5.000000E+01
 8.000000E+01  0.000000E+00  5.000000E+01
 9.000000E+01  0.000000E+00  5.000000E+01
 1.000000E+02  0.000000E+00  5.000000E+01
 0.000000E+00  1.000000E+00  5.000000E+01
 1.000000E+01  1.000000E+00  5.000000E+01
 2.000000E+01  1.000000E+00  5.000000E+01
 3.000000E+01  1.000000E+00  5.000000E+01
[...]
CELL_DATA      200
SCALARS Porosity             float 1
LOOKUP_TABLE default
 4.377090E-01  4.377099E-01  4.377100E-01  4.377100E-01  4.377100E-01  4.377100E-01  4.377100E-01  4.377100E-01  4.377100E-01  4.377100E-01
 4.377010E-01  4.377086E-01  4.377098E-01  4.377100E-01  4.377100E-01  4.377100E-01  4.377100E-01  4.377100E-01  4.377100E-01  4.377100E-01
 4.376663E-01  4.377021E-01  4.377089E-01  4.377099E-01  4.377100E-01  4.377100E-01  4.377100E-01  4.377100E-01  4.377100E-01  4.377100E-01
 4.375704E-01  4.376797E-01  4.377053E-01  4.377094E-01  4.377099E-01  4.377100E-01  4.377100E-01  4.377100E-01  4.377100E-01  4.377100E-01
 4.374094E-01  4.376246E-01  4.376947E-01  4.377080E-01  4.377098E-01  4.377100E-01  4.377100E-01  4.377100E-01  4.377100E-01  4.377100E-01
 4.373967E-01  4.375322E-01  4.376723E-01  4.377046E-01  4.377094E-01  4.377099E-01  4.377100E-01  4.377100E-01  4.377100E-01  4.377100E-01
 4.381429E-01  4.374710E-01  4.376405E-01  4.376992E-01  4.377088E-01  4.377099E-01  4.377100E-01  4.377100E-01  4.377100E-01  4.377100E-01
 4.381431E-01  4.374531E-01  4.376243E-01  4.376955E-01  4.377083E-01  4.377098E-01  4.377100E-01  4.377100E-01  4.377100E-01  4.377100E-01
 4.381433E-01  4.374457E-01  4.376150E-01  4.376930E-01  4.377079E-01  4.377098E-01  4.377100E-01  4.377100E-01  4.377100E-01  4.377100E-01
 4.381433E-01  4.374427E-01  4.376106E-01  4.376917E-01  4.377077E-01  4.377098E-01  4.377100E-01  4.377100E-01  4.377100E-01  4.377100E-01
 4.381433E-01  4.374427E-01  4.376106E-01  4.376917E-01  4.377077E-01  4.377098E-01  4.377100E-01  4.377100E-01  4.377100E-01  4.377100E-01
 4.381431E-01  4.374456E-01  4.376150E-01  4.376930E-01  4.377079E-01  4.377098E-01  4.377100E-01  4.377100E-01  4.377100E-01  4.377100E-01
 4.381428E-01  4.374530E-01  4.376243E-01  4.376955E-01  4.377083E-01  4.377098E-01  4.377100E-01  4.377100E-01  4.377100E-01  4.377100E-01
 4.381424E-01  4.374709E-01  4.376405E-01  4.376992E-01  4.377088E-01  4.377099E-01  4.377100E-01  4.377100E-01  4.377100E-01  4.377100E-01
 4.373964E-01  4.375322E-01  4.376723E-01  4.377047E-01  4.377094E-01  4.377099E-01  4.377100E-01  4.377100E-01  4.377100E-01  4.377100E-01
 4.374094E-01  4.376247E-01  4.376948E-01  4.377080E-01  4.377098E-01  4.377100E-01  4.377100E-01  4.377100E-01  4.377100E-01  4.377100E-01
 4.375705E-01  4.376798E-01  4.377053E-01  4.377094E-01  4.377099E-01  4.377100E-01  4.377100E-01  4.377100E-01  4.377100E-01  4.377100E-01
 4.376664E-01  4.377022E-01  4.377089E-01  4.377099E-01  4.377100E-01  4.377100E-01  4.377100E-01  4.377100E-01  4.377100E-01  4.377100E-01
 4.377011E-01  4.377086E-01  4.377098E-01  4.377100E-01  4.377100E-01  4.377100E-01  4.377100E-01  4.377100E-01  4.377100E-01  4.377100E-01
 4.377091E-01  4.377099E-01  4.377100E-01  4.377100E-01  4.377100E-01  4.377100E-01  4.377100E-01  4.377100E-01  4.377100E-01  4.377100E-01


SCALARS Permeability         float 1
LOOKUP_TABLE default
 1.000000E-12  1.000000E-12  1.000000E-12  1.000000E-12  1.000000E-12  1.000000E-12  1.000000E-12  1.000000E-12  1.000000E-12  1.000000E-12
 1.000000E-12  1.000000E-12  1.000000E-12  1.000000E-12  1.000000E-12  1.000000E-12  1.000000E-12  1.000000E-12  1.000000E-12  1.000000E-12
 1.000000E-12  1.000000E-12  1.000000E-12  1.000000E-12  1.000000E-12  1.000000E-12  1.000000E-12  1.000000E-12  1.000000E-12  1.000000E-12
 1.000000E-12  1.000000E-12  1.000000E-12  1.000000E-12  1.000000E-12  1.000000E-12  1.000000E-12  1.000000E-12  1.000000E-12  1.000000E-12
 1.000000E-12  1.000000E-12  1.000000E-12  1.000000E-12  1.000000E-12  1.000000E-12  1.000000E-12  1.000000E-12  1.000000E-12  1.000000E-12
 1.000000E-12  1.000000E-12  1.000000E-12  1.000000E-12  1.000000E-12  1.000000E-12  1.000000E-12  1.000000E-12  1.000000E-12  1.000000E-12
 1.000000E-12  1.000000E-12  1.000000E-12  1.000000E-12  1.000000E-12  1.000000E-12  1.000000E-12  1.000000E-12  1.000000E-12  1.000000E-12
 1.000000E-12  1.000000E-12  1.000000E-12  1.000000E-12  1.000000E-12  1.000000E-12  1.000000E-12  1.000000E-12  1.000000E-12  1.000000E-12
 1.000000E-12  1.000000E-12  1.000000E-12  1.000000E-12  1.000000E-12  1.000000E-12  1.000000E-12  1.000000E-12  1.000000E-12  1.000000E-12
 1.000000E-12  1.000000E-12  1.000000E-12  1.000000E-12  1.000000E-12  1.000000E-12  1.000000E-12  1.000000E-12  1.000000E-12  1.000000E-12
 1.000000E-12  1.000000E-12  1.000000E-12  1.000000E-12  1.000000E-12  1.000000E-12  1.000000E-12  1.000000E-12  1.000000E-12  1.000000E-12
 1.000000E-12  1.000000E-12  1.000000E-12  1.000000E-12  1.000000E-12  1.000000E-12  1.000000E-12  1.000000E-12  1.000000E-12  1.000000E-12
 1.000000E-12  1.000000E-12  1.000000E-12  1.000000E-12  1.000000E-12  1.000000E-12  1.000000E-12  1.000000E-12  1.000000E-12  1.000000E-12
 1.000000E-12  1.000000E-12  1.000000E-12  1.000000E-12  1.000000E-12  1.000000E-12  1.000000E-12  1.000000E-12  1.000000E-12  1.000000E-12
 1.000000E-12  1.000000E-12  1.000000E-12  1.000000E-12  1.000000E-12  1.000000E-12  1.000000E-12  1.000000E-12  1.000000E-12  1.000000E-12
 1.000000E-12  1.000000E-12  1.000000E-12  1.000000E-12  1.000000E-12  1.000000E-12  1.000000E-12  1.000000E-12  1.000000E-12  1.000000E-12
 1.000000E-12  1.000000E-12  1.000000E-12  1.000000E-12  1.000000E-12  1.000000E-12  1.000000E-12  1.000000E-12  1.000000E-12  1.000000E-12
 1.000000E-12  1.000000E-12  1.000000E-12  1.000000E-12  1.000000E-12  1.000000E-12  1.000000E-12  1.000000E-12  1.000000E-12  1.000000E-12
 1.000000E-12  1.000000E-12  1.000000E-12  1.000000E-12  1.000000E-12  1.000000E-12  1.000000E-12  1.000000E-12  1.000000E-12  1.000000E-12
 1.000000E-12  1.000000E-12  1.000000E-12  1.000000E-12  1.000000E-12  1.000000E-12  1.000000E-12  1.000000E-12  1.000000E-12  1.000000E-12


SCALARS Liquid_Pressure      float 1
LOOKUP_TABLE default
 7.947686E+06  7.908015E+06  7.849031E+06  7.785162E+06  7.723650E+06  7.667249E+06  7.616527E+06  7.571150E+06  7.530500E+06  7.493937E+06
 7.922357E+06  7.875900E+06  7.811234E+06  7.743892E+06  7.680491E+06  7.623109E+06  7.571885E+06  7.526249E+06  7.485461E+06  7.448817E+06
 7.920255E+06  7.857598E+06  7.780705E+06  7.706305E+06  7.639183E+06  7.579899E+06  7.527709E+06  7.481578E+06  7.440527E+06  7.403726E+06
 7.949485E+06  7.854484E+06  7.757117E+06  7.671952E+06  7.599426E+06  7.537449E+06  7.483909E+06  7.437092E+06  7.395676E+06  7.358660E+06
 8.026226E+06  7.867994E+06  7.739606E+06  7.640071E+06  7.560766E+06  7.495515E+06  7.440360E+06  7.392726E+06  7.350879E+06  7.313609E+06
 8.182123E+06  7.897935E+06  7.726283E+06  7.609519E+06  7.522606E+06  7.453792E+06  7.396906E+06  7.348406E+06  7.306103E+06  7.268565E+06
 8.480265E+06  7.937751E+06  7.713668E+06  7.578782E+06  7.484246E+06  7.411943E+06  7.353383E+06  7.304050E+06  7.261312E+06  7.223517E+06
 8.628524E+06  7.961924E+06  7.696717E+06  7.546155E+06  7.444961E+06  7.369629E+06  7.309627E+06  7.259579E+06  7.216469E+06  7.178456E+06
 8.688828E+06  7.963524E+06  7.671915E+06  7.510185E+06  7.404114E+06  7.326556E+06  7.265496E+06  7.214927E+06  7.171546E+06  7.133374E+06
 8.690481E+06  7.941591E+06  7.637339E+06  7.469873E+06  7.361239E+06  7.282506E+06  7.220888E+06  7.170044E+06  7.126520E+06  7.088265E+06
 8.645271E+06  7.896419E+06  7.592182E+06  7.424724E+06  7.316094E+06  7.237363E+06  7.175747E+06  7.124903E+06  7.081379E+06  7.043125E+06
 8.553203E+06  7.828011E+06  7.536445E+06  7.374737E+06  7.268679E+06  7.191128E+06  7.130072E+06  7.079505E+06  7.036125E+06  6.997955E+06
 8.402506E+06  7.736079E+06  7.470937E+06  7.320410E+06  7.219236E+06  7.143916E+06  7.083919E+06  7.033875E+06  6.990767E+06  6.952757E+06
 8.163906E+06  7.621589E+06  7.397584E+06  7.262742E+06  7.168233E+06  7.095944E+06  7.037392E+06  6.988064E+06  6.945329E+06  6.907538E+06
 7.775525E+06  7.491476E+06  7.319903E+06  7.203188E+06  7.116305E+06  7.047509E+06  6.990632E+06  6.942138E+06  6.899840E+06  6.862306E+06
 7.529388E+06  7.371252E+06  7.242937E+06  7.143451E+06  7.064178E+06  6.998946E+06  6.943802E+06  6.896176E+06  6.854335E+06  6.817071E+06
 7.362400E+06  7.267467E+06  7.170163E+06  7.085047E+06  7.012552E+06  6.950595E+06  6.897067E+06  6.850259E+06  6.808851E+06  6.771841E+06
 7.242914E+06  7.180307E+06  7.103469E+06  7.029114E+06  6.962023E+06  6.902759E+06  6.850582E+06  6.804463E+06  6.763421E+06  6.726628E+06
 7.154749E+06  7.108333E+06  7.043715E+06  6.976414E+06  6.913043E+06  6.855682E+06  6.804473E+06  6.758851E+06  6.718074E+06  6.681439E+06
 7.089798E+06  7.050162E+06  6.991223E+06  6.927394E+06  6.865913E+06  6.809535E+06  6.758830E+06  6.713468E+06  6.672831E+06  6.636279E+06


SCALARS Temperature          float 1
LOOKUP_TABLE default
 1.500629E+02  1.500525E+02  1.500423E+02  1.500351E+02  1.500302E+02  1.500256E+02  1.500206E+02  1.500156E+02  1.500110E+02  1.500070E+02
 1.500827E+02  1.500812E+02  1.500681E+02  1.500502E+02  1.500365E+02  1.500276E+02  1.500211E+02  1.500157E+02  1.500110E+02  1.500070E+02
 1.500854E+02  1.500943E+02  1.500912E+02  1.500712E+02  1.500485E+02  1.500326E+02  1.500229E+02  1.500163E+02  1.500112E+02  1.500071E+02
 1.500819E+02  1.500977E+02  1.501061E+02  1.500920E+02  1.500642E+02  1.500405E+02  1.500259E+02  1.500173E+02  1.500116E+02  1.500073E+02
 1.500722E+02  1.500972E+02  1.501149E+02  1.501097E+02  1.500812E+02  1.500506E+02  1.500303E+02  1.500189E+02  1.500121E+02  1.500075E+02
 1.500512E+02  1.500950E+02  1.501210E+02  1.501242E+02  1.500979E+02  1.500619E+02  1.500356E+02  1.500209E+02  1.500128E+02  1.500077E+02
 1.500085E+02  1.500930E+02  1.501277E+02  1.501372E+02  1.501137E+02  1.500735E+02  1.500413E+02  1.500231E+02  1.500136E+02  1.500080E+02
 1.500029E+02  1.501000E+02  1.501377E+02  1.501501E+02  1.501282E+02  1.500845E+02  1.500470E+02  1.500254E+02  1.500144E+02  1.500083E+02
 1.500011E+02  1.501049E+02  1.501452E+02  1.501597E+02  1.501392E+02  1.500932E+02  1.500517E+02  1.500273E+02  1.500151E+02  1.500085E+02
 1.500011E+02  1.501084E+02  1.501505E+02  1.501663E+02  1.501466E+02  1.500990E+02  1.500549E+02  1.500286E+02  1.500155E+02  1.500087E+02
 1.500011E+02  1.501084E+02  1.501505E+02  1.501663E+02  1.501466E+02  1.500990E+02  1.500549E+02  1.500286E+02  1.500155E+02  1.500087E+02
 1.500025E+02  1.501081E+02  1.501499E+02  1.501652E+02  1.501443E+02  1.500968E+02  1.500536E+02  1.500282E+02  1.500154E+02  1.500086E+02
 1.500058E+02  1.501069E+02  1.501477E+02  1.501615E+02  1.501384E+02  1.500914E+02  1.500507E+02  1.500271E+02  1.500151E+02  1.500085E+02
 1.500136E+02  1.501045E+02  1.501436E+02  1.501547E+02  1.501286E+02  1.500832E+02  1.500464E+02  1.500254E+02  1.500146E+02  1.500084E+02
 1.500695E+02  1.501174E+02  1.501466E+02  1.501496E+02  1.501178E+02  1.500739E+02  1.500416E+02  1.500236E+02  1.500140E+02  1.500081E+02
 1.501037E+02  1.501318E+02  1.501511E+02  1.501424E+02  1.501046E+02  1.500638E+02  1.500366E+02  1.500217E+02  1.500133E+02  1.500079E+02
 1.501267E+02  1.501446E+02  1.501520E+02  1.501294E+02  1.500882E+02  1.500531E+02  1.500318E+02  1.500199E+02  1.500127E+02  1.500077E+02
 1.501432E+02  1.501523E+02  1.501425E+02  1.501078E+02  1.500697E+02  1.500431E+02  1.500276E+02  1.500184E+02  1.500121E+02  1.500075E+02
 1.501507E+02  1.501427E+02  1.501147E+02  1.500793E+02  1.500519E+02  1.500349E+02  1.500245E+02  1.500172E+02  1.500117E+02  1.500073E+02
 1.501221E+02  1.500970E+02  1.500708E+02  1.500509E+02  1.500381E+02  1.500294E+02  1.500224E+02  1.500164E+02  1.500114E+02  1.500072E+02


SCALARS pH                   float 1
LOOKUP_TABLE default
 6.145451E+00  6.145281E+00  6.145004E+00  6.144688E+00  6.144432E+00  6.144276E+00  6.144201E+00  6.144169E+00  6.144154E+00  6.144146E+00
 6.145579E+00  6.145557E+00  6.145411E+00  6.145096E+00  6.144720E+00  6.144426E+00  6.144260E+00  6.144187E+00  6.144159E+00  6.144147E+00
 6.145554E+00  6.145596E+00  6.145558E+00  6.145350E+00  6.144976E+00  6.144597E+00  6.144342E+00  6.144217E+00  6.144168E+00  6.144149E+00
 6.145279E+00  6.145581E+00  6.145602E+00  6.145489E+00  6.145174E+00  6.144764E+00  6.144437E+00  6.144256E+00  6.144180E+00  6.144152E+00
 6.142291E+00  6.145451E+00  6.145609E+00  6.145562E+00  6.145315E+00  6.144911E+00  6.144534E+00  6.144301E+00  6.144196E+00  6.144157E+00
 6.118694E+00  6.144334E+00  6.145576E+00  6.145599E+00  6.145411E+00  6.145029E+00  6.144623E+00  6.144347E+00  6.144213E+00  6.144162E+00
 5.995433E+00  6.137645E+00  6.145371E+00  6.145619E+00  6.145476E+00  6.145120E+00  6.144698E+00  6.144388E+00  6.144230E+00  6.144167E+00
 5.995422E+00  6.136017E+00  6.145288E+00  6.145640E+00  6.145524E+00  6.145186E+00  6.144755E+00  6.144421E+00  6.144243E+00  6.144171E+00
 5.995423E+00  6.135258E+00  6.145240E+00  6.145656E+00  6.145556E+00  6.145231E+00  6.144795E+00  6.144444E+00  6.144253E+00  6.144174E+00
 5.995424E+00  6.134953E+00  6.145219E+00  6.145665E+00  6.145574E+00  6.145255E+00  6.144816E+00  6.144457E+00  6.144259E+00  6.144176E+00
 5.995421E+00  6.134948E+00  6.145216E+00  6.145662E+00  6.145572E+00  6.145255E+00  6.144816E+00  6.144458E+00  6.144259E+00  6.144176E+00
 5.995416E+00  6.135249E+00  6.145235E+00  6.145654E+00  6.145555E+00  6.145230E+00  6.144794E+00  6.144445E+00  6.144254E+00  6.144175E+00
 5.995415E+00  6.136006E+00  6.145283E+00  6.145640E+00  6.145524E+00  6.145185E+00  6.144754E+00  6.144421E+00  6.144244E+00  6.144171E+00
 5.995427E+00  6.137635E+00  6.145368E+00  6.145621E+00  6.145478E+00  6.145119E+00  6.144697E+00  6.144388E+00  6.144230E+00  6.144167E+00
 6.118700E+00  6.144335E+00  6.145583E+00  6.145607E+00  6.145415E+00  6.145030E+00  6.144623E+00  6.144347E+00  6.144214E+00  6.144162E+00
 6.142303E+00  6.145465E+00  6.145626E+00  6.145576E+00  6.145322E+00  6.144912E+00  6.144534E+00  6.144302E+00  6.144197E+00  6.144157E+00
 6.145302E+00  6.145609E+00  6.145629E+00  6.145506E+00  6.145181E+00  6.144765E+00  6.144438E+00  6.144257E+00  6.144181E+00  6.144153E+00
 6.145590E+00  6.145633E+00  6.145586E+00  6.145364E+00  6.144980E+00  6.144597E+00  6.144343E+00  6.144218E+00  6.144168E+00  6.144149E+00
 6.145621E+00  6.145592E+00  6.145430E+00  6.145101E+00  6.144720E+00  6.144425E+00  6.144260E+00  6.144188E+00  6.144160E+00  6.144147E+00
 6.145476E+00  6.145293E+00  6.145006E+00  6.144685E+00  6.144429E+00  6.144274E+00  6.144200E+00  6.144168E+00  6.144154E+00  6.144146E+00


SCALARS Total_H+             float 1
LOOKUP_TABLE default
-3.049307E-03 -3.050092E-03 -3.051660E-03 -3.053568E-03 -3.055188E-03 -3.056248E-03 -3.056843E-03 -3.057174E-03 -3.057383E-03 -3.057540E-03
-3.048987E-03 -3.048508E-03 -3.049075E-03 -3.050956E-03 -3.053354E-03 -3.055298E-03 -3.056466E-03 -3.057056E-03 -3.057353E-03 -3.057534E-03
-3.049609E-03 -3.048575E-03 -3.048152E-03 -3.049234E-03 -3.051642E-03 -3.054170E-03 -3.055927E-03 -3.056859E-03 -3.057295E-03 -3.057519E-03
-3.049372E-03 -3.049007E-03 -3.047978E-03 -3.048236E-03 -3.050243E-03 -3.053024E-03 -3.055285E-03 -3.056593E-03 -3.057209E-03 -3.057495E-03
-3.034204E-03 -3.049105E-03 -3.048081E-03 -3.047693E-03 -3.049179E-03 -3.051973E-03 -3.054611E-03 -3.056281E-03 -3.057098E-03 -3.057463E-03
-2.902682E-03 -3.043823E-03 -3.048131E-03 -3.047377E-03 -3.048383E-03 -3.051070E-03 -3.053967E-03 -3.055958E-03 -3.056975E-03 -3.057425E-03
-2.289225E-03 -3.006370E-03 -3.047149E-03 -3.047095E-03 -3.047751E-03 -3.050318E-03 -3.053399E-03 -3.055657E-03 -3.056854E-03 -3.057386E-03
-2.289165E-03 -2.996908E-03 -3.046411E-03 -3.046732E-03 -3.047196E-03 -3.049697E-03 -3.052930E-03 -3.055405E-03 -3.056752E-03 -3.057352E-03
-2.289104E-03 -2.992391E-03 -3.045891E-03 -3.046447E-03 -3.046791E-03 -3.049247E-03 -3.052586E-03 -3.055217E-03 -3.056674E-03 -3.057327E-03
-2.289085E-03 -2.990534E-03 -3.045594E-03 -3.046247E-03 -3.046530E-03 -3.048974E-03 -3.052382E-03 -3.055106E-03 -3.056627E-03 -3.057311E-03
-2.289128E-03 -2.990569E-03 -3.045619E-03 -3.046264E-03 -3.046541E-03 -3.048978E-03 -3.052381E-03 -3.055103E-03 -3.056625E-03 -3.057309E-03
-2.289211E-03 -2.992395E-03 -3.045812E-03 -3.046324E-03 -3.046670E-03 -3.049162E-03 -3.052538E-03 -3.055192E-03 -3.056661E-03 -3.057321E-03
-2.289329E-03 -2.996862E-03 -3.046210E-03 -3.046456E-03 -3.046942E-03 -3.049528E-03 -3.052840E-03 -3.055360E-03 -3.056730E-03 -3.057343E-03
-2.289427E-03 -3.006223E-03 -3.046784E-03 -3.046646E-03 -3.047366E-03 -3.050075E-03 -3.053274E-03 -3.055596E-03 -3.056825E-03 -3.057374E-03
-2.902483E-03 -3.043316E-03 -3.047462E-03 -3.046688E-03 -3.047852E-03 -3.050759E-03 -3.053813E-03 -3.055885E-03 -3.056940E-03 -3.057410E-03
-3.033491E-03 -3.048186E-03 -3.047065E-03 -3.046772E-03 -3.048543E-03 -3.051627E-03 -3.054446E-03 -3.056204E-03 -3.057061E-03 -3.057448E-03
-3.048172E-03 -3.047669E-03 -3.046649E-03 -3.047176E-03 -3.049589E-03 -3.052692E-03 -3.055130E-03 -3.056520E-03 -3.057174E-03 -3.057481E-03
-3.047952E-03 -3.046876E-03 -3.046667E-03 -3.048210E-03 -3.051076E-03 -3.053896E-03 -3.055799E-03 -3.056798E-03 -3.057266E-03 -3.057507E-03
-3.046999E-03 -3.046721E-03 -3.047763E-03 -3.050178E-03 -3.052959E-03 -3.055111E-03 -3.056377E-03 -3.057013E-03 -3.057332E-03 -3.057524E-03
-3.047636E-03 -3.048877E-03 -3.050923E-03 -3.053183E-03 -3.055004E-03 -3.056162E-03 -3.056802E-03 -3.057154E-03 -3.057372E-03 -3.057535E-03


SCALARS Total_SiO2(aq)       float 1
LOOKUP_TABLE default
 1.040076E-02  1.039713E-02  1.039580E-02  1.039508E-02  1.039463E-02  1.039423E-02  1.039380E-02  1.039337E-02  1.039298E-02  1.039264E-02
 1.042826E-02  1.040380E-02  1.039864E-02  1.039652E-02  1.039523E-02  1.039442E-02  1.039385E-02  1.039338E-02  1.039298E-02  1.039264E-02
 1.053724E-02  1.042578E-02  1.040366E-02  1.039872E-02  1.039635E-02  1.039489E-02  1.039401E-02  1.039343E-02  1.039300E-02  1.039265E-02
 1.083622E-02  1.049639E-02  1.041662E-02  1.040198E-02  1.039788E-02  1.039562E-02  1.039430E-02  1.039353E-02  1.039303E-02  1.039266E-02
 1.141475E-02  1.066848E-02  1.045063E-02  1.040810E-02  1.039986E-02  1.039656E-02  1.039469E-02  1.039368E-02  1.039308E-02  1.039268E-02
 1.222786E-02  1.098233E-02  1.052156E-02  1.042007E-02  1.040253E-02  1.039767E-02  1.039518E-02  1.039386E-02  1.039314E-02  1.039270E-02
 1.306306E-02  1.139209E-02  1.062548E-02  1.043837E-02  1.040597E-02  1.039889E-02  1.039571E-02  1.039406E-02  1.039321E-02  1.039272E-02
 1.306206E-02  1.150140E-02  1.067865E-02  1.045103E-02  1.040885E-02  1.040002E-02  1.039624E-02  1.039427E-02  1.039328E-02  1.039275E-02
 1.306150E-02  1.155004E-02  1.070971E-02  1.045971E-02  1.041100E-02  1.040091E-02  1.039666E-02  1.039444E-02  1.039335E-02  1.039277E-02
 1.306139E-02  1.156974E-02  1.072436E-02  1.046430E-02  1.041229E-02  1.040149E-02  1.039695E-02  1.039456E-02  1.039339E-02  1.039278E-02
 1.306164E-02  1.156981E-02  1.072436E-02  1.046429E-02  1.041228E-02  1.040149E-02  1.039695E-02  1.039456E-02  1.039339E-02  1.039279E-02
 1.306228E-02  1.155046E-02  1.071009E-02  1.046015E-02  1.041142E-02  1.040121E-02  1.039683E-02  1.039452E-02  1.039338E-02  1.039278E-02
 1.306337E-02  1.150218E-02  1.067944E-02  1.045194E-02  1.040970E-02  1.040061E-02  1.039656E-02  1.039441E-02  1.039335E-02  1.039277E-02
 1.306483E-02  1.139323E-02  1.062674E-02  1.043980E-02  1.040724E-02  1.039972E-02  1.039616E-02  1.039426E-02  1.039330E-02  1.039276E-02
 1.222973E-02  1.098408E-02  1.052357E-02  1.042216E-02  1.040422E-02  1.039872E-02  1.039571E-02  1.039409E-02  1.039324E-02  1.039274E-02
 1.141716E-02  1.067111E-02  1.045354E-02  1.041084E-02  1.040187E-02  1.039771E-02  1.039525E-02  1.039392E-02  1.039318E-02  1.039272E-02
 1.083959E-02  1.050008E-02  1.042040E-02  1.040516E-02  1.039997E-02  1.039672E-02  1.039481E-02  1.039376E-02  1.039313E-02  1.039269E-02
 1.054180E-02  1.043051E-02  1.040798E-02  1.040188E-02  1.039820E-02  1.039581E-02  1.039443E-02  1.039362E-02  1.039308E-02  1.039268E-02
 1.043387E-02  1.040899E-02  1.040266E-02  1.039907E-02  1.039659E-02  1.039507E-02  1.039414E-02  1.039351E-02  1.039304E-02  1.039266E-02