# vtk DataFile Version 2.0
PFLOTRAN output
ASCII
DATASET UNSTRUCTURED_GRID
POINTS         4242 float
 0.000000E+00  0.000000E+00  0.000000E+00
 2.000000E+02  0.000000E+00  0.000000E+00
 4.000000E+02  0.000000E+00  0.000000E+00
 6.000000E+02  0.000000E+00  0.000000E+00
 8.000000E+02  0.000000E+00  0.000000E+00
 1.000000E+03  0.000000E+00  0.000000E+00
 1.200000E+03  0.000000E+00  0.000000E+00
 1.400000E+03  0.000000E+00  0.000000E+00
 1.600000E+03  0.000000E+00  0.000000E+00
 1.800000E+03  0.000000E+00  0.000000E+00
 2.000000E+03  0.000000E+00  0.000000E+00
 2.200000E+03  0.000000E+00  0.000000E+00
 2.400000E+03  0.000000E+00  0.000000E+00
 2.600000E+03  0.000000E+00  0.000000E+00
 2.800000E+03  0.000000E+00  0.000000E+00
 3.000000E+03  0.000000E+00  0.000000E+00
 3.200000E+03  0.000000E+00  0.000000E+00
 3.400000E+03  0.000000E+00  0.000000E+00
 3.600000E+03  0.000000E+00  0.000000E+00
 3.800000E+03  0.000000E+00  0.000000E+00
 4.000000E+03  0.000000E+00  0.000000E+00
 4.200000E+03  0.000000E+00  0.000000E+00
 4.400000E+03  0.000000E+00  0.000000E+00
 4.600000E+03  0.000000E+00  0.000000E+00
 4.800000E+03  0.000000E+00  0.000000E+00
 5.000000E+03  0.000000E+00  0.000000E+00
 5.200000E+03  0.000000E+00  0.000000E+00
 5.400000E+03  0.000000E+00  0.000000E+00
 5.600000E+03  0.000000E+00  0.000000E+00
 5.800000E+03  0.000000E+00  0.000000E+00
 6.000000E+03  0.000000E+00  0.000000E+00
 6.200000E+03  0.000000E+00  0.000000E+00
 6.400000E+03  0.000000E+00  0.000000E+00
 6.600000E+03  0.000000E+00  0.000000E+00
 6.800000E+03  0.000000E+00  0.000000E+00
 7.000000E+03  0.000000E+00  0.000000E+00
 7.200000E+03  0.000000E+00  0.000000E+00
 7.400000E+03  0.000000E+00  0.000000E+00
 7.600000E+03  0.000000E+00  0.000000E+00
 7.800000E+03  0.000000E+00  0.000000E+00
 8.000000E+03  0.000000E+00  0.000000E+00
 8.200000E+03  0.000000E+00  0.000000E+00
 8.400000E+03  0.000000E+00  0.000000E+00
 8.600000E+03  0.000000E+00  0.000000E+00
 8.800000E+03  0.000000E+00  0.000000E+00
 9.000000E+03  0.000000E+00  0.000000E+00
 9.200000E+03  0.000000E+00  0.000000E+00
 9.400000E+03  0.000000E+00  0.000000E+00
 9.600000E+03  0.000000E+00  0.000000E+00
 9.800000E+03  0.000000E+00  0.000000E+00
 1.000000E+04  0.000000E+00  0.000000E+00
 1.020000E+04  0.000000E+00  0.000000E+00
 1.040000E+04  0.000000E+00  0.000000E+00
 1.060000E+04  0.000000E+00  0.000000E+00
 1.080000E+04  0.000000E+00  0.000000E+00
 1.100000E+04  0.000000E+00  0.000000E+00
 1.120000E+04  0.000000E+00  0.000000E+00
 1.140000E+04  0.000000E+00  0.000000E+00
 1.160000E+04  0.000000E+00  0.000000E+00
 1.180000E+04  0.000000E+00  0.000000E+00
 1.200000E+04  0.000000E+00  0.000000E+00
 1.220000E+04  0.000000E+00  0.000000E+00
 1.240000E+04  0.000000E+00  0.000000E+00
 1.260000E+04  0.000000E+00  0.000000E+00
 1.280000E+04  0.000000E+00  0.000000E+00
 1.300000E+04  0.000000E+00  0.000000E+00
 1.320000E+04  0.000000E+00  0.000000E+00
 1.340000E+04  0.000000E+00  0.000000E+00
 1.360000E+04  0.000000E+00  0.000000E+00
 1.380000E+04  0.000000E+00  0.000000E+00
 1.400000E+04  0.000000E+00  0.000000E+00
 1.420000E+04  0.000000E+00  0.000000E+00
 1.440000E+04  0.000000E+00  0.000000E+00
 1.460000E+04  0.000000E+00  0.000000E+00
 1.480000E+04  0.000000E+00  0.000000E+00
 1.500000E+04  0.000000E+00  0.000000E+00
 1.520000E+04  0.000000E+00  0.000000E+00
 1.540000E+04  0.000000E+00  0.000000E+00
 1.560000E+04  0.000000E+00  0.000000E+00
 1.580000E+04  0.000000E+00  0.000000E+00
 1.600000E+04  0.000000E+00  0.000000E+00
 1.620000E+04  0.000000E+00  0.000000E+00
 1.640000E+04  0.000000E+00  0.000000E+00
 1.660000E+04  0.000000E+00  0.000000E+00
 1.680000E+04  0.000000E+00  0.000000E+00
 1.700000E+04  0.000000E+00  0.000000E+00
 1.720000E+04  0.000000E+00  0.000000E+00
 1.740000E+04  0.000000E+00  0.000000E+00
 1.760000E+04  0.000000E+00  0.000000E+00
 1.780000E+04  0.000000E+00  0.000000E+00
 1.800000E+04  0.000000E+00  0.000000E+00
 1.820000E+04  0.000000E+00  0.000000E+00
 1.840000E+04  0.000000E+00  0.000000E+00
 1.860000E+04  0.000000E+00  0.000000E+00
 1.880000E+04  0.000000E+00  0.000000E+00
 1.900000E+04  0.000000E+00  0.000000E+00
 1.920000E+04  0.000000E+00  0.000000E+00
 1.940000E+04  0.000000E+00  0.000000E+00
 1.960000E+04  0.000000E+00  0.000000E+00
 1.980000E+04  0.000000E+00  0.000000E+00
 2.000000E+04  0.000000E+00  0.000000E+00
 0.000000E+00  1.000000E+00  0.000000E+00
 2.000000E+02  1.000000E+00  0.000000E+00
 4.000000E+02  1.000000E+00  0.000000E+00
 6.000000E+02  1.000000E+00  0.000000E+00
 8.000000E+02  1.000000E+00  0.000000E+00
 1.000000E+03  1.000000E+00  0.000000E+00
 1.200000E+03  1.000000E+00  0.000000E+00
 1.400000E+03  1.000000E+00  0.000000E+00
 1.600000E+03  1.000000E+00  0.000000E+00
 1.800000E+03  1.000000E+00  0.000000E+00
 2.000000E+03  1.000000E+00  0.000000E+00
 2.200000E+03  1.000000E+00  0.000000E+00
 2.400000E+03  1.000000E+00  0.000000E+00
 2.600000E+03  1.000000E+00  0.000000E+00
 2.800000E+03  1.000000E+00  0.000000E+00
 3.000000E+03  1.000000E+00  0.000000E+00
 3.200000E+03  1.000000E+00  0.000000E+00
 3.400000E+03  1.000000E+00  0.000000E+00
 3.600000E+03  1.000000E+00  0.000000E+00
 3.800000E+03  1.000000E+00  0.000000E+00
 4.000000E+03  1.000000E+00  0.000000E+00
 4.200000E+03  1.000000E+00  0.000000E+00
 4.400000E+03  1.000000E+00  0.000000E+00
 4.600000E+03  1.000000E+00  0.000000E+00
 4.800000E+03  1.000000E+00  0.000000E+00
 5.000000E+03  1.000000E+00  0.000000E+00
 5.200000E+03  1.000000E+00  0.000000E+00
 5.400000E+03  1.000000E+00  0.000000E+00
 5.600000E+03  1.000000E+00  0.000000E+00
 5.800000E+03  1.000000E+00  0.000000E+00
 6.000000E+03  1.000000E+00  0.000000E+00
 6.200000E+03  1.000000E+00  0.000000E+00
 6.400000E+03  1.000000E+00  0.000000E+00
 6.600000E+03  1.000000E+00  0.000000E+00
 6.800000E+03  1.000000E+00  0.000000E+00
 7.000000E+03  1.000000E+00  0.000000E+00
 7.200000E+03  1.000000E+00  0.000000E+00
 7.400000E+03  1.000000E+00  0.000000E+00
 7.600000E+03  1.000000E+00  0.000000E+00
 7.800000E+03  1.000000E+00  0.000000E+00
 8.000000E+03  1.000000E+00  0.000000E+00
 8.200000E+03  1.000000E+00  0.000000E+00
 8.400000E+03  1.000000E+00  0.000000E+00
 8.600000E+03  1.000000E+00  0.000000E+00
 8.800000E+03  1.000000E+00  0.000000E+00
 9.000000E+03  1.000000E+00  0.000000E+00
 9.200000E+03  1.000000E+00  0.000000E+00
 9.400000E+03  1.000000E+00  0.000000E+00
 9.600000E+03  1.000000E+00  0.000000E+00
 9.800000E+03  1.000000E+00  0.000000E+00
 1.000000E+04  1.000000E+00  0.000000E+00
 1.020000E+04  1.000000E+00  0.000000E+00
 1.040000E+04  1.000000E+00  0.000000E+00
 1.060000E+04  1.000000E+00  0.000000E+00
 1.080000E+04  1.000000E+00  0.000000E+00
 1.100000E+04  1.000000E+00  0.000000E+00
 1.120000E+04  1.000000E+00  0.000000E+00
 1.140000E+04  1.000000E+00  0.000000E+00
 1.160000E+04  1.000000E+00  0.000000E+00
 1.180000E+04  1.000000E+00  0.000000E+00
 1.200000E+04  1.000000E+00  0.000000E+00
 1.220000E+04  1.000000E+00  0.000000E+00
 1.240000E+04  1.000000E+00  0.000000E+00
 1.260000E+04  1.000000E+00  0.000000E+00
 1.280000E+04  1.000000E+00  0.000000E+00
 1.300000E+04  1.000000E+00  0.000000E+00
 1.320000E+04  1.000000E+00  0.000000E+00
 1.340000E+04  1.000000E+00  0.000000E+00
 1.360000E+04  1.000000E+00  0.000000E+00
 1.380000E+04  1.000000E+00  0.000000E+00
 1.400000E+04  1.000000E+00  0.000000E+00
 1.420000E+04  1.000000E+00  0.000000E+00
 1.440000E+04  1.000000E+00  0.000000E+00
 1.460000E+04  1.000000E+00  0.000000E+00
 1.480000E+04  1.000000E+00  0.000000E+00
 1.500000E+04  1.000000E+00  0.000000E+00
 1.520000E+04  1.000000E+00  0.000000E+00
 1.540000E+04  1.000000E+00  0.000000E+00
 1.560000E+04  1.000000E+00  0.000000E+00
 1.580000E+04  1.000000E+00  0.000000E+00
 1.600000E+04  1.000000E+00  0.000000E+00
 1.620000E+04  1.000000E+00  0.000000E+00
 1.640000E+04  1.000000E+00  0.000000E+00
 1.660000E+04  1.000000E+00  0.000000E+00
 1.680000E+04  1.000000E+00  0.000000E+00
 1.700000E+04  1.000000E+00  0.000000E+00
 1.720000E+04  1.000000E+00  0.000000E+00
 1.740000E+04  1.000000E+00  0.000000E+00
 1.760000E+04  1.000000E+00  0.000000E+00
 1.780000E+04  1.000000E+00  0.000000E+00
 1.800000E+04  1.000000E+00  0.000000E+00
 1.820000E+04  1.000000E+00  0.000000E+00
 1.840000E+04  1.000000E+00  0.000000E+00
 1.860000E+04  1.000000E+00  0.000000E+00
 1.880000E+04  1.000000E+00  0.000000E+00
 1.900000E+04  1.000000E+00  0.000000E+00
 1.920000E+04  1.000000E+00  0.000000E+00
 1.940000E+04  1.000000E+00  0.000000E+00
 1.960000E+04  1.000000E+00  0.000000E+00
 1.980000E+04  1.000000E+00  0.000000E+00
 2.000000E+04  1.000000E+00  0.000000E+00
 0.000000E+00  0.000000E+00  1.500000E+01
 2.000000E+02  0.000000E+00  1.500000E+01
 4.000000E+02  0.000000E+00  1.500000E+01
 6.000000E+02  0.000000E+00  1.500000E+01
 8.000000E+02  0.000000E+00  1.500000E+01
 1.000000E+03  0.000000E+00  1.500000E+01
 1.200000E+03  0.000000E+00  1.500000E+01
 1.400000E+03  0.000000E+00  1.500000E+01
 1.600000E+03  0.000000E+00  1.500000E+01
 1.800000E+03  0.000000E+00  1.500000E+01
 2.000000E+03  0.000000E+00  1.500000E+01
 2.200000E+03  0.000000E+00  1.500000E+01
 2.400000E+03  0.000000E+00  1.500000E+01
 2.600000E+03  0.000000E+00  1.500000E+01
 2.800000E+03  0.000000E+00  1.500000E+01
 3.000000E+03  0.000000E+00  1.500000E+01
 3.200000E+03  0.000000E+00  1.500000E+01
 3.400000E+03  0.000000E+00  1.500000E+01
 3.600000E+03  0.000000E+00  1.500000E+01
 3.800000E+03  0.000000E+00  1.500000E+01
 4.000000E+03  0.000000E+00  1.500000E+01
 4.200000E+03  0.000000E+00  1.500000E+01
 4.400000E+03  0.000000E+00  1.500000E+01
 4.600000E+03  0.000000E+00  1.500000E+01
 4.800000E+03  0.000000E+00  1.500000E+01
 5.000000E+03  0.000000E+00  1.500000E+01
 5.200000E+03  0.000000E+00  1.500000E+01
 5.400000E+03  0.000000E+00  1.500000E+01
 5.600000E+03  0.000000E+00  1.500000E+01
 5.800000E+03  0.000000E+00  1.500000E+01
 6.000000E+03  0.000000E+00  1.500000E+01
 6.200000E+03  0.000000E+00  1.500000E+01
 6.400000E+03  0.000000E+00  1.500000E+01
[...]
CELL_DATA     2000
SCALARS Vlx                  float 1
LOOKUP_TABLE default
 3.760799E+01  3.669855E+01  3.212784E+01  2.600707E+01  2.108204E+01  1.748289E+01  1.485721E+01  1.289385E+01  1.138183E+01  1.018514E+01
 9.215552E+00  8.414347E+00  7.741265E+00  7.167877E+00  6.673570E+00  6.243041E+00  5.864696E+00  5.529589E+00  5.230708E+00  4.962482E+00
 4.720423E+00  4.500881E+00  4.300854E+00  4.117849E+00  3.949784E+00  3.794900E+00  3.651705E+00  3.518924E+00  3.395461E+00  3.280368E+00
 3.172822E+00  3.072104E+00  2.977584E+00  2.888707E+00  2.804982E+00  2.725974E+00  2.651296E+00  2.580600E+00  2.513576E+00  2.449946E+00
 2.389458E+00  2.331886E+00  2.277022E+00  2.224681E+00  2.174693E+00  2.126901E+00  2.081166E+00  2.037355E+00  1.995352E+00  1.955046E+00
 1.916335E+00  1.879129E+00  1.843339E+00  1.808888E+00  1.775701E+00  1.743709E+00  1.712851E+00  1.683065E+00  1.654298E+00  1.626498E+00
 1.599617E+00  1.573610E+00  1.548435E+00  1.524053E+00  1.500427E+00  1.477523E+00  1.455307E+00  1.433750E+00  1.412822E+00  1.392497E+00
 1.372748E+00  1.353551E+00  1.334884E+00  1.316725E+00  1.299054E+00  1.281850E+00  1.265097E+00  1.248776E+00  1.232870E+00  1.217365E+00
 1.202245E+00  1.187496E+00  1.173104E+00  1.159058E+00  1.145344E+00  1.131950E+00  1.118866E+00  1.106082E+00  1.093586E+00  1.081370E+00
 1.069424E+00  1.057739E+00  1.046307E+00  1.035120E+00  1.024171E+00  1.013454E+00  1.002963E+00  9.926969E-01  9.826590E-01  9.728865E-01
 4.052869E+01  3.831011E+01  3.266796E+01  2.615943E+01  2.112393E+01  1.749504E+01  1.486132E+01  1.289571E+01  1.138300E+01  1.018605E+01
 9.216341E+00  8.415057E+00  7.741915E+00  7.168478E+00  6.674129E+00  6.243564E+00  5.865187E+00  5.530052E+00  5.231147E+00  4.962898E+00
 4.720819E+00  4.501258E+00  4.301214E+00  4.118194E+00  3.950115E+00  3.795217E+00  3.652010E+00  3.519218E+00  3.395745E+00  3.280642E+00
 3.173087E+00  3.072361E+00  2.977833E+00  2.888949E+00  2.805217E+00  2.726202E+00  2.651517E+00  2.580815E+00  2.513786E+00  2.450151E+00
 2.389658E+00  2.332081E+00  2.277213E+00  2.224867E+00  2.174875E+00  2.127079E+00  2.081340E+00  2.037526E+00  1.995519E+00  1.955209E+00
 1.916496E+00  1.879286E+00  1.843494E+00  1.809039E+00  1.775849E+00  1.743855E+00  1.712994E+00  1.683206E+00  1.654436E+00  1.626634E+00
 1.599750E+00  1.573741E+00  1.548565E+00  1.524181E+00  1.500553E+00  1.477647E+00  1.455429E+00  1.433870E+00  1.412941E+00  1.392613E+00
 1.372863E+00  1.353664E+00  1.334996E+00  1.316835E+00  1.299162E+00  1.281958E+00  1.265203E+00  1.248880E+00  1.232973E+00  1.217467E+00
 1.202345E+00  1.187595E+00  1.173203E+00  1.159155E+00  1.145439E+00  1.132045E+00  1.118960E+00  1.106174E+00  1.093678E+00  1.081460E+00
 1.069513E+00  1.057827E+00  1.046394E+00  1.035206E+00  1.024256E+00  1.013538E+00  1.003047E+00  9.927788E-01  9.827376E-01  9.729390E-01
 4.673749E+01  4.164627E+01  3.373090E+01  2.645140E+01  2.120245E+01  1.751684E+01  1.486800E+01  1.289826E+01  1.138435E+01  1.018702E+01
 9.217145E+00  8.415771E+00  7.742567E+00  7.169080E+00  6.674688E+00  6.244087E+00  5.865678E+00  5.530515E+00  5.231584E+00  4.963313E+00
 4.721214E+00  4.501635E+00  4.301574E+00  4.118539E+00  3.950445E+00  3.795535E+00  3.652316E+00  3.519513E+00  3.396029E+00  3.280917E+00
 3.173353E+00  3.072618E+00  2.978082E+00  2.889190E+00  2.805452E+00  2.726430E+00  2.651739E+00  2.581031E+00  2.513997E+00  2.450356E+00
 2.389858E+00  2.332276E+00  2.277403E+00  2.225053E+00  2.175056E+00  2.127257E+00  2.081514E+00  2.037696E+00  1.995686E+00  1.955373E+00
 1.916656E+00  1.879443E+00  1.843648E+00  1.809190E+00  1.775998E+00  1.744001E+00  1.713137E+00  1.683347E+00  1.654575E+00  1.626770E+00
 1.599884E+00  1.573873E+00  1.548694E+00  1.524308E+00  1.500678E+00  1.477770E+00  1.455551E+00  1.433990E+00  1.413059E+00  1.392730E+00
 1.372977E+00  1.353778E+00  1.335108E+00  1.316946E+00  1.299271E+00  1.282065E+00  1.265308E+00  1.248984E+00  1.233076E+00  1.217568E+00
 1.202446E+00  1.187694E+00  1.173301E+00  1.159252E+00  1.145535E+00  1.132139E+00  1.119054E+00  1.106267E+00  1.093769E+00  1.081551E+00
 1.069602E+00  1.057915E+00  1.046481E+00  1.035293E+00  1.024342E+00  1.013623E+00  1.003130E+00  9.928597E-01  9.828139E-01  9.729958E-01
 5.702505E+01  4.694481E+01  3.527991E+01  2.686122E+01  2.131072E+01  1.754640E+01  1.487674E+01  1.290136E+01  1.138586E+01  1.018803E+01
 9.217960E+00  8.416489E+00  7.743219E+00  7.169681E+00  6.675248E+00  6.244610E+00  5.866169E+00  5.530978E+00  5.232022E+00  4.963728E+00
 4.721609E+00  4.502012E+00  4.301934E+00  4.118883E+00  3.950776E+00  3.795852E+00  3.652621E+00  3.519807E+00  3.396313E+00  3.281191E+00
 3.173618E+00  3.072875E+00  2.978331E+00  2.889432E+00  2.805686E+00  2.726658E+00  2.651961E+00  2.581247E+00  2.514207E+00  2.450561E+00
 2.390058E+00  2.332471E+00  2.277594E+00  2.225239E+00  2.175238E+00  2.127435E+00  2.081688E+00  2.037867E+00  1.995853E+00  1.955536E+00
 1.916816E+00  1.879600E+00  1.843802E+00  1.809342E+00  1.776146E+00  1.744147E+00  1.713280E+00  1.683487E+00  1.654713E+00  1.626906E+00
 1.600018E+00  1.574004E+00  1.548823E+00  1.524435E+00  1.500804E+00  1.477894E+00  1.455673E+00  1.434110E+00  1.413177E+00  1.392846E+00
 1.373092E+00  1.353891E+00  1.335219E+00  1.317056E+00  1.299380E+00  1.282172E+00  1.265414E+00  1.249089E+00  1.233179E+00  1.217670E+00
 1.202546E+00  1.187794E+00  1.173399E+00  1.159348E+00  1.145631E+00  1.132234E+00  1.119147E+00  1.106359E+00  1.093860E+00  1.081641E+00
 1.069692E+00  1.058004E+00  1.046569E+00  1.035379E+00  1.024427E+00  1.013707E+00  1.003212E+00  9.929397E-01  9.828888E-01  9.730559E-01
 7.272747E+01  5.458655E+01  3.724301E+01  2.735574E+01  2.143896E+01  1.758101E+01  1.488681E+01  1.290482E+01  1.138746E+01  1.018906E+01
 9.218782E+00  8.417207E+00  7.743871E+00  7.170283E+00  6.675807E+00  6.245133E+00  5.866660E+00  5.531440E+00  5.232460E+00  4.964143E+00
 4.722004E+00  4.502388E+00  4.302293E+00  4.119228E+00  3.951106E+00  3.796170E+00  3.652927E+00  3.520101E+00  3.396597E+00  3.281465E+00
 3.173883E+00  3.073132E+00  2.978580E+00  2.889673E+00  2.805921E+00  2.726886E+00  2.652182E+00  2.581463E+00  2.514417E+00  2.450766E+00
 2.390258E+00  2.332666E+00  2.277784E+00  2.225425E+00  2.175420E+00  2.127613E+00  2.081862E+00  2.038037E+00  1.996019E+00  1.955699E+00
 1.916976E+00  1.879757E+00  1.843956E+00  1.809493E+00  1.776295E+00  1.744293E+00  1.713423E+00  1.683628E+00  1.654851E+00  1.627042E+00
 1.600152E+00  1.574136E+00  1.548953E+00  1.524563E+00  1.500929E+00  1.478017E+00  1.455794E+00  1.434230E+00  1.413295E+00  1.392962E+00
 1.373207E+00  1.354004E+00  1.335331E+00  1.317166E+00  1.299488E+00  1.282279E+00  1.265520E+00  1.249193E+00  1.233282E+00  1.217772E+00
 1.202647E+00  1.187893E+00  1.173497E+00  1.159445E+00  1.145727E+00  1.132329E+00  1.119241E+00  1.106452E+00  1.093952E+00  1.081731E+00
 1.069781E+00  1.058092E+00  1.046656E+00  1.035465E+00  1.024512E+00  1.013790E+00  1.003294E+00  9.930189E-01  9.829627E-01  9.731183E-01
 9.593119E+01  6.512506E+01  3.948925E+01  2.789060E+01  2.157513E+01  1.761748E+01  1.489736E+01  1.290841E+01  1.138910E+01  1.019010E+01
 9.219606E+00  8.417927E+00  7.744524E+00  7.170884E+00  6.676366E+00  6.245655E+00  5.867151E+00  5.531903E+00  5.232897E+00  4.964558E+00
 4.722398E+00  4.502764E+00  4.302653E+00  4.119572E+00  3.951436E+00  3.796487E+00  3.653232E+00  3.520395E+00  3.396881E+00  3.281739E+00
 3.174148E+00  3.073388E+00  2.978829E+00  2.889915E+00  2.806155E+00  2.727114E+00  2.652404E+00  2.581678E+00  2.514627E+00  2.450970E+00
 2.390457E+00  2.332861E+00  2.277974E+00  2.225611E+00  2.175602E+00  2.127790E+00  2.082036E+00  2.038207E+00  1.996186E+00  1.955863E+00
 1.917137E+00  1.879914E+00  1.844110E+00  1.809644E+00  1.776443E+00  1.744438E+00  1.713567E+00  1.683769E+00  1.654989E+00  1.627178E+00
 1.600285E+00  1.574267E+00  1.549082E+00  1.524690E+00  1.501054E+00  1.478141E+00  1.455916E+00  1.434349E+00  1.413413E+00  1.393079E+00
 1.373322E+00  1.354117E+00  1.335442E+00  1.317276E+00  1.299597E+00  1.282386E+00  1.265625E+00  1.249297E+00  1.233385E+00  1.217874E+00
 1.202747E+00  1.187992E+00  1.173595E+00  1.159542E+00  1.145822E+00  1.132423E+00  1.119334E+00  1.106544E+00  1.094043E+00  1.081822E+00
 1.069870E+00  1.058180E+00  1.046743E+00  1.035551E+00  1.024597E+00  1.013874E+00  1.003375E+00  9.930975E-01  9.830361E-01  9.731825E-01
 1.296251E+02  7.927118E+01  4.179023E+01  2.841205E+01  2.170598E+01  1.765238E+01  1.490746E+01  1.291187E+01  1.139070E+01  1.019113E+01
 9.220428E+00  8.418646E+00  7.745176E+00  7.171485E+00  6.676924E+00  6.246177E+00  5.867641E+00  5.532365E+00  5.233335E+00  4.964973E+00
 4.722793E+00  4.503141E+00  4.303012E+00  4.119916E+00  3.951766E+00  3.796804E+00  3.653537E+00  3.520689E+00  3.397164E+00  3.282013E+00
 3.174413E+00  3.073645E+00  2.979078E+00  2.890156E+00  2.806389E+00  2.727342E+00  2.652625E+00  2.581894E+00  2.514837E+00  2.451175E+00
 2.390657E+00  2.333055E+00  2.278164E+00  2.225797E+00  2.175783E+00  2.127968E+00  2.082209E+00  2.038377E+00  1.996353E+00  1.956026E+00
 1.917297E+00  1.880071E+00  1.844264E+00  1.809795E+00  1.776591E+00  1.744584E+00  1.713710E+00  1.683909E+00  1.655128E+00  1.627313E+00
 1.600419E+00  1.574399E+00  1.549211E+00  1.524817E+00  1.501180E+00  1.478264E+00  1.456037E+00  1.434469E+00  1.413531E+00  1.393195E+00
 1.373436E+00  1.354230E+00  1.335554E+00  1.317386E+00  1.299705E+00  1.282493E+00  1.265731E+00  1.249402E+00  1.233488E+00  1.217975E+00
 1.202848E+00  1.188091E+00  1.173693E+00  1.159639E+00  1.145918E+00  1.132518E+00  1.119427E+00  1.106636E+00  1.094134E+00  1.081912E+00
 1.069960E+00  1.058269E+00  1.046830E+00  1.035637E+00  1.024682E+00  1.013957E+00  1.003457E+00  9.931757E-01  9.831091E-01  9.732481E-01
 1.517158E+02  8.912585E+01  4.376239E+01  2.886237E+01  2.181840E+01  1.768238E+01  1.491626E+01  1.291498E+01  1.139221E+01  1.019214E+01
 9.221242E+00  8.419362E+00  7.745827E+00  7.172086E+00  6.677483E+00  6.246700E+00  5.868132E+00  5.532828E+00  5.233772E+00  4.965388E+00
 4.723187E+00  4.503517E+00  4.303372E+00  4.120260E+00  3.952096E+00  3.797121E+00  3.653842E+00  3.520983E+00  3.397448E+00  3.282287E+00
 3.174678E+00  3.073902E+00  2.979326E+00  2.890397E+00  2.806624E+00  2.727569E+00  2.652847E+00  2.582109E+00  2.515047E+00  2.451380E+00
 2.390856E+00  2.333250E+00  2.278354E+00  2.225983E+00  2.175965E+00  2.128146E+00  2.082383E+00  2.038547E+00  1.996519E+00  1.956189E+00
 1.917457E+00  1.880228E+00  1.844418E+00  1.809946E+00  1.776739E+00  1.744729E+00  1.713853E+00  1.684050E+00  1.655266E+00  1.627449E+00
 1.600552E+00  1.574530E+00  1.549341E+00  1.524945E+00  1.501305E+00  1.478387E+00  1.456159E+00  1.434589E+00  1.413649E+00  1.393311E+00
 1.373551E+00  1.354343E+00  1.335665E+00  1.317495E+00  1.299814E+00  1.282600E+00  1.265837E+00  1.249506E+00  1.233591E+00  1.218077E+00
 1.202948E+00  1.188190E+00  1.173791E+00  1.159736E+00  1.146013E+00  1.132612E+00  1.119521E+00  1.106729E+00  1.094226E+00  1.082002E+00
 1.070049E+00  1.058357E+00  1.046918E+00  1.035723E+00  1.024767E+00  1.014040E+00  1.003538E+00  9.932535E-01  9.831820E-01  9.733146E-01
 1.649761E+02  9.532409E+01  4.517920E+01  2.919249E+01  2.190103E+01  1.770466E+01  1.492300E+01  1.291754E+01  1.139356E+01  1.019310E+01
 9.222044E+00  8.420075E+00  7.746477E+00  7.172686E+00  6.678041E+00  6.247222E+00  5.868622E+00  5.533290E+00  5.234209E+00  4.965803E+00
 4.723582E+00  4.503892E+00  4.303731E+00  4.120604E+00  3.952426E+00  3.797438E+00  3.654147E+00  3.521277E+00  3.397731E+00  3.282561E+00
 3.174943E+00  3.074158E+00  2.979575E+00  2.890639E+00  2.806858E+00  2.727797E+00  2.653068E+00  2.582325E+00  2.515257E+00  2.451584E+00
 2.391056E+00  2.333445E+00  2.278544E+00  2.226168E+00  2.176146E+00  2.128323E+00  2.082557E+00  2.038717E+00  1.996686E+00  1.956352E+00
 1.917616E+00  1.880385E+00  1.844571E+00  1.810097E+00  1.776888E+00  1.744875E+00  1.713995E+00  1.684190E+00  1.655404E+00  1.627585E+00
 1.600686E+00  1.574661E+00  1.549470E+00  1.525072E+00  1.501430E+00  1.478511E+00  1.456280E+00  1.434708E+00  1.413767E+00  1.393427E+00
 1.373665E+00  1.354456E+00  1.335776E+00  1.317605E+00  1.299922E+00  1.282707E+00  1.265942E+00  1.249610E+00  1.233694E+00  1.218178E+00
 1.203048E+00  1.188289E+00  1.173888E+00  1.159832E+00  1.146109E+00  1.132707E+00  1.119614E+00  1.106821E+00  1.094317E+00  1.082092E+00
 1.070138E+00  1.058445E+00  1.047005E+00  1.035809E+00  1.024851E+00  1.014123E+00  1.003619E+00  9.933311E-01  9.832547E-01  9.733817E-01
 1.711960E+02  9.831793E+01  4.591689E+01  2.936778E+01  2.194550E+01  1.771710E+01  1.492715E+01  1.291941E+01  1.139473E+01  1.019401E+01
 9.222832E+00  8.420784E+00  7.747126E+00  7.173286E+00  6.678599E+00  6.247743E+00  5.869112E+00  5.533752E+00  5.234646E+00  4.966217E+00
 4.723976E+00  4.504268E+00  4.304090E+00  4.120948E+00  3.952756E+00  3.797755E+00  3.654452E+00  3.521571E+00  3.398015E+00  3.282835E+00
 3.175208E+00  3.074414E+00  2.979823E+00  2.890880E+00  2.807092E+00  2.728024E+00  2.653289E+00  2.582540E+00  2.515466E+00  2.451788E+00
 2.391255E+00  2.333639E+00  2.278734E+00  2.226354E+00  2.176328E+00  2.128501E+00  2.082730E+00  2.038887E+00  1.996852E+00  1.956516E+00
 1.917776E+00  1.880542E+00  1.844725E+00  1.810248E+00  1.777036E+00  1.745020E+00  1.714138E+00  1.684331E+00  1.655542E+00  1.627721E+00
 1.600819E+00  1.574793E+00  1.549599E+00  1.525199E+00  1.501555E+00  1.478634E+00  1.456402E+00  1.434828E+00  1.413884E+00  1.393544E+00
 1.373780E+00  1.354569E+00  1.335888E+00  1.317715E+00  1.300030E+00  1.282814E+00  1.266048E+00  1.249714E+00  1.233797E+00  1.218280E+00
 1.203149E+00  1.188388E+00  1.173986E+00  1.159929E+00  1.146204E+00  1.132801E+00  1.119707E+00  1.106913E+00  1.094408E+00  1.082182E+00
 1.070227E+00  1.058533E+00  1.047092E+00  1.035895E+00  1.024936E+00  1.014206E+00  1.003699E+00  9.934085E-01  9.833274E-01  9.734492E-01
 1.711998E+02  9.832172E+01  4.592019E+01  2.937029E+01  2.194740E+01  1.771862E+01  1.492841E+01  1.292049E+01  1.139569E+01  1.019487E+01
 9.223605E+00  8.421488E+00  7.747773E+00  7.173885E+00  6.679157E+00  6.248265E+00  5.869602E+00  5.534213E+00  5.235082E+00  4.966631E+00
 4.724370E+00  4.504644E+00  4.304449E+00  4.121291E+00  3.953085E+00  3.798071E+00  3.654757E+00  3.521864E+00  3.398298E+00  3.283109E+00
 3.175473E+00  3.074671E+00  2.980072E+00  2.891120E+00  2.807326E+00  2.728252E+00  2.653510E+00  2.582755E+00  2.515676E+00  2.451993E+00
 2.391454E+00  2.333834E+00  2.278924E+00  2.226540E+00  2.176509E+00  2.128678E+00  2.082904E+00  2.039057E+00  1.997019E+00  1.956679E+00
 1.917936E+00  1.880698E+00  1.844879E+00  1.810399E+00  1.777184E+00  1.745166E+00  1.714281E+00  1.684471E+00  1.655680E+00  1.627856E+00
 1.600953E+00  1.574924E+00  1.549728E+00  1.525326E+00  1.501680E+00  1.478757E+00  1.456523E+00  1.434948E+00  1.414002E+00  1.393660E+00
 1.373894E+00  1.354682E+00  1.335999E+00  1.317825E+00  1.300139E+00  1.282921E+00  1.266153E+00  1.249818E+00  1.233900E+00  1.218381E+00
 1.203249E+00  1.188487E+00  1.174084E+00  1.160026E+00  1.146300E+00  1.132895E+00  1.119801E+00  1.107005E+00  1.094499E+00  1.082273E+00
 1.070316E+00  1.058621E+00  1.047179E+00  1.035981E+00  1.025020E+00  1.014289E+00  1.003780E+00  9.934859E-01  9.834000E-01  9.735167E-01
 1.649955E+02  9.534006E+01  4.519055E+01  2.920027E+01  2.190674E+01  1.770920E+01  1.492679E+01  1.292081E+01  1.139643E+01  1.019566E+01
 9.224361E+00  8.422188E+00  7.748419E+00  7.174483E+00  6.679714E+00  6.248786E+00  5.870091E+00  5.534675E+00  5.235519E+00  4.967045E+00
 4.724764E+00  4.505019E+00  4.304808E+00  4.121635E+00  3.953415E+00  3.798388E+00  3.655061E+00  3.522158E+00  3.398581E+00  3.283382E+00
 3.175737E+00  3.074927E+00  2.980320E+00  2.891361E+00  2.807560E+00  2.728479E+00  2.653732E+00  2.582971E+00  2.515885E+00  2.452197E+00
 2.391654E+00  2.334028E+00  2.279114E+00  2.226725E+00  2.176690E+00  2.128855E+00  2.083077E+00  2.039227E+00  1.997185E+00  1.956842E+00
 1.918096E+00  1.880855E+00  1.845033E+00  1.810549E+00  1.777332E+00  1.745311E+00  1.714424E+00  1.684611E+00  1.655818E+00  1.627992E+00
 1.601086E+00  1.575055E+00  1.549857E+00  1.525453E+00  1.501806E+00  1.478880E+00  1.456644E+00  1.435067E+00  1.414120E+00  1.393776E+00
 1.374009E+00  1.354794E+00  1.336110E+00  1.317935E+00  1.300247E+00  1.283028E+00  1.266259E+00  1.249922E+00  1.234002E+00  1.218483E+00
 1.203349E+00  1.188586E+00  1.174182E+00  1.160122E+00  1.146395E+00  1.132990E+00  1.119894E+00  1.107098E+00  1.094590E+00  1.082363E+00
 1.070405E+00  1.058709E+00  1.047266E+00  1.036067E+00  1.025105E+00  1.014372E+00  1.003861E+00  9.935632E-01  9.834726E-01  9.735842E-01
 1.517483E+02  8.915260E+01  4.378128E+01  2.887525E+01  2.182789E+01  1.768994E+01  1.492257E+01  1.292043E+01  1.139699E+01  1.019641E+01
 9.225102E+00  8.422883E+00  7.749064E+00  7.175082E+00  6.680271E+00  6.249307E+00  5.870581E+00  5.535136E+00  5.235955E+00  4.967459E+00
 4.725157E+00  4.505395E+00  4.305166E+00  4.121978E+00  3.953744E+00  3.798704E+00  3.655366E+00  3.522451E+00  3.398864E+00  3.283656E+00
 3.176002E+00  3.075183E+00  2.980568E+00  2.891602E+00  2.807793E+00  2.728706E+00  2.653952E+00  2.583186E+00  2.516095E+00  2.452401E+00
 2.391853E+00  2.334222E+00  2.279304E+00  2.226910E+00  2.176872E+00  2.129032E+00  2.083251E+00  2.039397E+00  1.997351E+00  1.957004E+00
 1.918256E+00  1.881011E+00  1.845186E+00  1.810700E+00  1.777480E+00  1.745456E+00  1.714567E+00  1.684751E+00  1.655955E+00  1.628127E+00
 1.601219E+00  1.575186E+00  1.549986E+00  1.525580E+00  1.501931E+00  1.479003E+00  1.456765E+00  1.435187E+00  1.414238E+00  1.393892E+00
 1.374123E+00  1.354907E+00  1.336222E+00  1.318044E+00  1.300355E+00  1.283134E+00  1.266364E+00  1.250026E+00  1.234105E+00  1.218584E+00
 1.203449E+00  1.188685E+00  1.174280E+00  1.160219E+00  1.146491E+00  1.133084E+00  1.119987E+00  1.107190E+00  1.094681E+00  1.082453E+00
 1.070494E+00  1.058797E+00  1.047353E+00  1.036153E+00  1.025190E+00  1.014455E+00  1.003941E+00  9.936407E-01  9.835452E-01  9.736511E-01
 1.296664E+02  7.930647E+01  4.181588E+01  2.842974E+01  2.171915E+01  1.766292E+01  1.491630E+01  1.291949E+01  1.139740E+01  1.019711E+01
 9.225832E+00  8.423575E+00  7.749708E+00  7.175679E+00  6.680828E+00  6.249828E+00  5.871070E+00  5.535597E+00  5.236392E+00  4.967873E+00
 4.725551E+00  4.505770E+00  4.305525E+00  4.122321E+00  3.954073E+00  3.799020E+00  3.655670E+00  3.522744E+00  3.399147E+00  3.283929E+00
 3.176266E+00  3.075439E+00  2.980816E+00  2.891843E+00  2.808027E+00  2.728933E+00  2.654173E+00  2.583401E+00  2.516304E+00  2.452605E+00
 2.392052E+00  2.334417E+00  2.279494E+00  2.227096E+00  2.177053E+00  2.129210E+00  2.083424E+00  2.039567E+00  1.997517E+00  1.957167E+00
 1.918415E+00  1.881168E+00  1.845340E+00  1.810851E+00  1.777628E+00  1.745602E+00  1.714709E+00  1.684892E+00  1.656093E+00  1.628263E+00
 1.601352E+00  1.575317E+00  1.550115E+00  1.525707E+00  1.502055E+00  1.479126E+00  1.456887E+00  1.435306E+00  1.414355E+00  1.394008E+00
 1.374237E+00  1.355020E+00  1.336333E+00  1.318154E+00  1.300463E+00  1.283241E+00  1.266469E+00  1.250130E+00  1.234208E+00  1.218686E+00
 1.203549E+00  1.188784E+00  1.174377E+00  1.160315E+00  1.146586E+00  1.133178E+00  1.120080E+00  1.107282E+00  1.094773E+00  1.082543E+00
 1.070583E+00  1.058885E+00  1.047440E+00  1.036239E+00  1.025274E+00  1.014538E+00  1.004022E+00  9.937183E-01  9.836178E-01  9.737175E-01
 9.599112E+01  6.517199E+01  3.952129E+01  2.791282E+01  2.159191E+01  1.763100E+01  1.490870E+01  1.291820E+01  1.139771E+01  1.019779E+01
 9.226554E+00  8.424265E+00  7.750350E+00  7.176276E+00  6.681384E+00  6.250349E+00  5.871559E+00  5.536058E+00  5.236828E+00  4.968287E+00