# vtk DataFile Version 2.0
PFLOTRAN output
ASCII
DATASET UNSTRUCTURED_GRID
POINTS          462 float
 0.000000E+00  0.000000E+00  0.000000E+00
 2.000000E+03  0.000000E+00  0.000000E+00
 4.000000E+03  0.000000E+00  0.000000E+00
 6.000000E+03  0.000000E+00  0.000000E+00
 8.000000E+03  0.000000E+00  0.000000E+00
 1.000000E+04  0.000000E+00  0.000000E+00
 1.200000E+04  0.000000E+00  0.000000E+00
 1.400000E+04  0.000000E+00  0.000000E+00
 1.600000E+04  0.000000E+00  0.000000E+00
 1.800000E+04  0.000000E+00  0.000000E+00
 2.000000E+04  0.000000E+00  0.000000E+00
 0.000000E+00  1.000000E+00  0.000000E+00
 2.000000E+03  1.000000E+00  0.000000E+00
 4.000000E+03  1.000000E+00  0.000000E+00
 6.000000E+03  1.000000E+00  0.000000E+00
 8.000000E+03  1.000000E+00  0.000000E+00
 1.000000E+04  1.000000E+00  0.000000E+00
 1.200000E+04  1.000000E+00  0.000000E+00
 1.400000E+04  1.000000E+00  0.000000E+00
 1.600000E+04  1.000000E+00  0.000000E+00
 1.800000E+04  1.000000E+00  0.000000E+00
 2.000000E+04  1.000000E+00  0.000000E+00
 0.000000E+00  0.000000E+00  5.000000E+00
 2.000000E+03  0.000000E+00  5.000000E+00
 4.000000E+03  0.000000E+00  5.000000E+00
 6.000000E+03  0.000000E+00  5.000000E+00
 8.000000E+03  0.000000E+00  5.000000E+00
 1.000000E+04  0.000000E+00  5.000000E+00
 1.200000E+04  0.000000E+00  5.000000E+00
 1.400000E+04  0.000000E+00  5.000000E+00
 1.600000E+04  0.000000E+00  5.000000E+00
 1.800000E+04  0.000000E+00  5.000000E+00
 2.000000E+04  0.000000E+00  5.000000E+00
 0.000000E+00  1.000000E+00  5.000000E+00
 2.000000E+03  1.000000E+00  5.000000E+00
 4.000000E+03  1.000000E+00  5.000000E+00
 6.000000E+03  1.000000E+00  5.000000E+00
 8.000000E+03  1.000000E+00  5.000000E+00
 1.000000E+04  1.000000E+00  5.000000E+00
 1.200000E+04  1.000000E+00  5.000000E+00
 1.400000E+04  1.000000E+00  5.000000E+00
 1.600000E+04  1.000000E+00  5.000000E+00
 1.800000E+04  1.000000E+00  5.000000E+00
 2.000000E+04  1.000000E+00  5.000000E+00
 0.000000E+00  0.000000E+00  1.000000E+01
 2.000000E+03  0.000000E+00  1.000000E+01
 4.000000E+03  0.000000E+00  1.000000E+01
 6.000000E+03  0.000000E+00  1.000000E+01
 8.000000E+03  0.000000E+00  1.000000E+01
 1.000000E+04  0.000000E+00  1.000000E+01
 1.200000E+04  0.000000E+00  1.000000E+01
 1.400000E+04  0.000000E+00  1.000000E+01
 1.600000E+04  0.000000E+00  1.000000E+01
 1.800000E+04  0.000000E+00  1.000000E+01
 2.000000E+04  0.000000E+00  1.000000E+01
 0.000000E+00  1.000000E+00  1.000000E+01
 2.000000E+03  1.000000E+00  1.000000E+01
 4.000000E+03  1.000000E+00  1.000000E+01
 6.000000E+03  1.000000E+00  1.000000E+01
 8.000000E+03  1.000000E+00  1.000000E+01
 1.000000E+04  1.000000E+00  1.000000E+01
 1.200000E+04  1.000000E+00  1.000000E+01
 1.400000E+04  1.000000E+00  1.000000E+01
 1.600000E+04  1.000000E+00  1.000000E+01
 1.800000E+04  1.000000E+00  1.000000E+01
 2.000000E+04  1.000000E+00  1.000000E+01
 0.000000E+00  0.000000E+00  1.500000E+01
 2.000000E+03  0.000000E+00  1.500000E+01
 4.000000E+03  0.000000E+00  1.500000E+01
 6.000000E+03  0.000000E+00  1.500000E+01
 8.000000E+03  0.000000E+00  1.500000E+01
 1.000000E+04  0.000000E+00  1.500000E+01
 1.200000E+04  0.000000E+00  1.500000E+01
 1.400000E+04  0.000000E+00  1.500000E+01
 1.600000E+04  0.000000E+00  1.500000E+01
 1.800000E+04  0.000000E+00  1.500000E+01
 2.000000E+04  0.000000E+00  1.500000E+01
 0.000000E+00  1.000000E+00  1.500000E+01
 2.000000E+03  1.000000E+00  1.500000E+01
 4.000000E+03  1.000000E+00  1.500000E+01
 6.000000E+03  1.000000E+00  1.500000E+01
 8.000000E+03  1.000000E+00  1.500000E+01
 1.000000E+04  1.000000E+00  1.500000E+01
 1.200000E+04  1.000000E+00  1.500000E+01
 1.400000E+04  1.000000E+00  1.500000E+01
 1.600000E+04  1.000000E+00  1.500000E+01
 1.800000E+04  1.000000E+00  1.500000E+01
 2.000000E+04  1.000000E+00  1.500000E+01
 0.000000E+00  0.000000E+00  2.000000E+01
 2.000000E+03  0.000000E+00  2.000000E+01
 4.000000E+03  0.000000E+00  2.000000E+01
 6.000000E+03  0.000000E+00  2.000000E+01
 8.000000E+03  0.000000E+00  2.000000E+01
 1.000000E+04  0.000000E+00  2.000000E+01
 1.200000E+04  0.000000E+00  2.000000E+01
 1.400000E+04  0.000000E+00  2.000000E+01
 1.600000E+04  0.000000E+00  2.000000E+01
 1.800000E+04  0.000000E+00  2.000000E+01
 2.000000E+04  0.000000E+00  2.000000E+01
 0.000000E+00  1.000000E+00  2.000000E+01
 2.000000E+03  1.000000E+00  2.000000E+01
 4.000000E+03  1.000000E+00  2.000000E+01
 6.000000E+03  1.000000E+00  2.000000E+01
 8.000000E+03  1.000000E+00  2.000000E+01
 1.000000E+04  1.000000E+00  2.000000E+01
 1.200000E+04  1.000000E+00  2.000000E+01
 1.400000E+04  1.000000E+00  2.000000E+01
 1.600000E+04  1.000000E+00  2.000000E+01
 1.800000E+04  1.000000E+00  2.000000E+01
 2.000000E+04  1.000000E+00  2.000000E+01
 0.000000E+00  0.000000E+00  2.500000E+01
 2.000000E+03  0.000000E+00  2.500000E+01
 4.000000E+03  0.000000E+00  2.500000E+01
 6.000000E+03  0.000000E+00  2.500000E+01
 8.000000E+03  0.000000E+00  2.500000E+01
 1.000000E+04  0.000000E+00  2.500000E+01
 1.200000E+04  0.000000E+00  2.500000E+01
 1.400000E+04  0.000000E+00  2.500000E+01
 1.600000E+04  0.000000E+00  2.500000E+01
 1.800000E+04  0.000000E+00  2.500000E+01
 2.000000E+04  0.000000E+00  2.500000E+01
 0.000000E+00  1.000000E+00  2.500000E+01
 2.000000E+03  1.000000E+00  2.500000E+01
 4.000000E+03  1.000000E+00  2.500000E+01
 6.000000E+03  1.000000E+00  2.500000E+01
 8.000000E+03  1.000000E+00  2.500000E+01
 1.000000E+04  1.000000E+00  2.500000E+01
 1.200000E+04  1.000000E+00  2.500000E+01
 1.400000E+04  1.000000E+00  2.500000E+01
 1.600000E+04  1.000000E+00  2.500000E+01
 1.800000E+04  1.000000E+00  2.500000E+01
 2.000000E+04  1.000000E+00  2.500000E+01
 0.000000E+00  0.000000E+00  3.000000E+01
 2.000000E+03  0.000000E+00  3.000000E+01
 4.000000E+03  0.000000E+00  3.000000E+01
 6.000000E+03  0.000000E+00  3.000000E+01
 8.000000E+03  0.000000E+00  3.000000E+01
 1.000000E+04  0.000000E+00  3.000000E+01
 1.200000E+04  0.000000E+00  3.000000E+01
 1.400000E+04  0.000000E+00  3.000000E+01
 1.600000E+04  0.000000E+00  3.000000E+01
 1.800000E+04  0.000000E+00  3.000000E+01
 2.000000E+04  0.000000E+00  3.000000E+01
 0.000000E+00  1.000000E+00  3.000000E+01
 2.000000E+03  1.000000E+00  3.000000E+01
 4.000000E+03  1.000000E+00  3.000000E+01
 6.000000E+03  1.000000E+00  3.000000E+01
 8.000000E+03  1.000000E+00  3.000000E+01
 1.000000E+04  1.000000E+00  3.000000E+01
 1.200000E+04  1.000000E+00  3.000000E+01
 1.400000E+04  1.000000E+00  3.000000E+01
 1.600000E+04  1.000000E+00  3.000000E+01
 1.800000E+04  1.000000E+00  3.000000E+01
 2.000000E+04  1.000000E+00  3.000000E+01
 0.000000E+00  0.000000E+00  3.500000E+01
 2.000000E+03  0.000000E+00  3.500000E+01
 4.000000E+03  0.000000E+00  3.500000E+01
 6.000000E+03  0.000000E+00  3.500000E+01
 8.000000E+03  0.000000E+00  3.500000E+01
 1.000000E+04  0.000000E+00  3.500000E+01
 1.200000E+04  0.000000E+00  3.500000E+01
 1.400000E+04  0.000000E+00  3.500000E+01
 1.600000E+04  0.000000E+00  3.500000E+01
 1.800000E+04  0.000000E+00  3.500000E+01
 2.000000E+04  0.000000E+00  3.500000E+01
 0.000000E+00  1.000000E+00  3.500000E+01
 2.000000E+03  1.000000E+00  3.500000E+01
 4.000000E+03  1.000000E+00  3.500000E+01
 6.000000E+03  1.000000E+00  3.500000E+01
 8.000000E+03  1.000000E+00  3.500000E+01
 1.000000E+04  1.000000E+00  3.500000E+01
 1.200000E+04  1.000000E+00  3.500000E+01
 1.400000E+04  1.000000E+00  3.500000E+01
 1.600000E+04  1.000000E+00  3.500000E+01
 1.800000E+04  1.000000E+00  3.500000E+01
 2.000000E+04  1.000000E+00  3.500000E+01
 0.000000E+00  0.000000E+00  4.000000E+01
 2.000000E+03  0.000000E+00  4.000000E+01
 4.000000E+03  0.000000E+00  4.000000E+01
 6.000000E+03  0.000000E+00  4.000000E+01
 8.000000E+03  0.000000E+00  4.000000E+01
 1.000000E+04  0.000000E+00  4.000000E+01
 1.200000E+04  0.000000E+00  4.000000E+01
 1.400000E+04  0.000000E+00  4.000000E+01
 1.600000E+04  0.000000E+00  4.000000E+01
 1.800000E+04  0.000000E+00  4.000000E+01
 2.000000E+04  0.000000E+00  4.000000E+01
 0.000000E+00  1.000000E+00  4.000000E+01
 2.000000E+03  1.000000E+00  4.000000E+01
 4.000000E+03  1.000000E+00  4.000000E+01
 6.000000E+03  1.000000E+00  4.000000E+01
 8.000000E+03  1.000000E+00  4.000000E+01
 1.000000E+04  1.000000E+00  4.000000E+01
 1.200000E+04  1.000000E+00  4.000000E+01
 1.400000E+04  1.000000E+00  4.000000E+01
 1.600000E+04  1.000000E+00  4.000000E+01
 1.800000E+04  1.000000E+00  4.000000E+01
 2.000000E+04  1.000000E+00  4.000000E+01
 0.000000E+00  0.000000E+00  4.500000E+01
 2.000000E+03  0.000000E+00  4.500000E+01
 4.000000E+03  0.000000E+00  4.500000E+01
 6.000000E+03  0.000000E+00  4.500000E+01
 8.000000E+03  0.000000E+00  4.500000E+01
 1.000000E+04  0.000000E+00  4.500000E+01
 1.200000E+04  0.000000E+00  4.500000E+01
 1.400000E+04  0.000000E+00  4.500000E+01
 1.600000E+04  0.000000E+00  4.500000E+01
 1.800000E+04  0.000000E+00  4.500000E+01
 2.000000E+04  0.000000E+00  4.500000E+01
 0.000000E+00  1.000000E+00  4.500000E+01
 2.000000E+03  1.000000E+00  4.500000E+01
 4.000000E+03  1.000000E+00  4.500000E+01
 6.000000E+03  1.000000E+00  4.500000E+01
 8.000000E+03  1.000000E+00  4.500000E+01
 1.000000E+04  1.000000E+00  4.500000E+01
 1.200000E+04  1.000000E+00  4.500000E+01
 1.400000E+04  1.000000E+00  4.500000E+01
 1.600000E+04  1.000000E+00  4.500000E+01
 1.800000E+04  1.000000E+00  4.500000E+01
 2.000000E+04  1.000000E+00  4.500000E+01
 0.000000E+00  0.000000E+00  5.000000E+01
 2.000000E+03  0.000000E+00  5.000000E+01
 4.000000E+03  0.000000E+00  5.000000E+01
 6.000000E+03  0.000000E+00  5.000000E+01
 8.000000E+03  0.000000E+00  5.000000E+01
 1.000000E+04  0.000000E+00  5.000000E+01
 1.200000E+04  0.000000E+00  5.000000E+01
 1.400000E+04  0.000000E+00  5.000000E+01
 1.600000E+04  0.000000E+00  5.000000E+01
 1.800000E+04  0.000000E+00  5.000000E+01
 2.000000E+04  0.000000E+00  5.000000E+01
 0.000000E+00  1.000000E+00  5.000000E+01
 2.000000E+03  1.000000E+00  5.000000E+01
 4.000000E+03  1.000000E+00  5.000000E+01
 6.000000E+03  1.000000E+00  5.000000E+01
[...]
CELL_DATA      200
SCALARS Porosity             float 1
LOOKUP_TABLE default
 4.377100E-01  4.377100E-01  4.377100E-01  4.377100E-01  4.377100E-01  4.377100E-01  4.377100E-01  4.377100E-01  4.377100E-01  4.377100E-01
 4.377100E-01  4.377100E-01  4.377100E-01  4.377100E-01  4.377100E-01  4.377100E-01  4.377100E-01  4.377100E-01  4.377100E-01  4.377100E-01
 4.377100E-01  4.377100E-01  4.377100E-01  4.377100E-01  4.377100E-01  4.377100E-01  4.377100E-01  4.377100E-01  4.377100E-01  4.377100E-01
 4.377100E-01  4.377100E-01  4.377100E-01  4.377100E-01  4.377100E-01  4.377100E-01  4.377100E-01  4.377100E-01  4.377100E-01  4.377100E-01
 4.377100E-01  4.377100E-01  4.377100E-01  4.377100E-01  4.377100E-01  4.377100E-01  4.377100E-01  4.377100E-01  4.377100E-01  4.377100E-01
 4.377100E-01  4.377100E-01  4.377100E-01  4.377100E-01  4.377100E-01  4.377100E-01  4.377100E-01  4.377100E-01  4.377100E-01  4.377100E-01
 4.377100E-01  4.377100E-01  4.377100E-01  4.377100E-01  4.377100E-01  4.377100E-01  4.377100E-01  4.377100E-01  4.377100E-01  4.377100E-01
 4.377100E-01  4.377100E-01  4.377100E-01  4.377100E-01  4.377100E-01  4.377100E-01  4.377100E-01  4.377100E-01  4.377100E-01  4.377100E-01
 4.377100E-01  4.377100E-01  4.377100E-01  4.377100E-01  4.377100E-01  4.377100E-01  4.377100E-01  4.377100E-01  4.377100E-01  4.377100E-01
 4.377100E-01  4.377100E-01  4.377100E-01  4.377100E-01  4.377100E-01  4.377100E-01  4.377100E-01  4.377100E-01  4.377100E-01  4.377100E-01
 4.377100E-01  4.377100E-01  4.377100E-01  4.377100E-01  4.377100E-01  4.377100E-01  4.377100E-01  4.377100E-01  4.377100E-01  4.377100E-01
 4.377100E-01  4.377100E-01  4.377100E-01  4.377100E-01  4.377100E-01  4.377100E-01  4.377100E-01  4.377100E-01  4.377100E-01  4.377100E-01
 4.377100E-01  4.377100E-01  4.377100E-01  4.377100E-01  4.377100E-01  4.377100E-01  4.377100E-01  4.377100E-01  4.377100E-01  4.377100E-01
 4.377100E-01  4.377100E-01  4.377100E-01  4.377100E-01  4.377100E-01  4.377100E-01  4.377100E-01  4.377100E-01  4.377100E-01  4.377100E-01
 4.377100E-01  4.377100E-01  4.377100E-01  4.377100E-01  4.377100E-01  4.377100E-01  4.377100E-01  4.377100E-01  4.377100E-01  4.377100E-01
 4.377100E-01  4.377100E-01  4.377100E-01  4.377100E-01  4.377100E-01  4.377100E-01  4.377100E-01  4.377100E-01  4.377100E-01  4.377100E-01
 4.377100E-01  4.377100E-01  4.377100E-01  4.377100E-01  4.377100E-01  4.377100E-01  4.377100E-01  4.377100E-01  4.377100E-01  4.377100E-01
 4.377100E-01  4.377100E-01  4.377100E-01  4.377100E-01  4.377100E-01  4.377100E-01  4.377100E-01  4.377100E-01  4.377100E-01  4.377100E-01
 4.377100E-01  4.377100E-01  4.377100E-01  4.377100E-01  4.377100E-01  4.377100E-01  4.377100E-01  4.377100E-01  4.377100E-01  4.377100E-01
 4.377100E-01  4.377100E-01  4.377100E-01  4.377100E-01  4.377100E-01  4.377100E-01  4.377100E-01  4.377100E-01  4.377100E-01  4.377100E-01


SCALARS Permeability         float 1
LOOKUP_TABLE default
 8.829806E-13  8.829805E-13  8.829805E-13  8.829805E-13  8.829805E-13  8.829805E-13  8.829805E-13  8.829805E-13  8.829805E-13  8.829805E-13
 8.829806E-13  8.829805E-13  8.829805E-13  8.829805E-13  8.829805E-13  8.829805E-13  8.829805E-13  8.829805E-13  8.829805E-13  8.829805E-13
 8.829806E-13  8.829805E-13  8.829805E-13  8.829805E-13  8.829805E-13  8.829805E-13  8.829805E-13  8.829805E-13  8.829805E-13  8.829805E-13
 8.829806E-13  8.829805E-13  8.829805E-13  8.829805E-13  8.829805E-13  8.829805E-13  8.829805E-13  8.829805E-13  8.829805E-13  8.829805E-13
 8.829806E-13  8.829805E-13  8.829805E-13  8.829805E-13  8.829805E-13  8.829805E-13  8.829805E-13  8.829805E-13  8.829805E-13  8.829805E-13
 8.829806E-13  8.829805E-13  8.829805E-13  8.829805E-13  8.829805E-13  8.829805E-13  8.829805E-13  8.829805E-13  8.829805E-13  8.829805E-13
 8.829803E-13  8.829806E-13  8.829805E-13  8.829805E-13  8.829805E-13  8.829805E-13  8.829805E-13  8.829805E-13  8.829805E-13  8.829805E-13
 8.829803E-13  8.829806E-13  8.829805E-13  8.829805E-13  8.829805E-13  8.829805E-13  8.829805E-13  8.829805E-13  8.829805E-13  8.829805E-13
 8.829804E-13  8.829806E-13  8.829805E-13  8.829805E-13  8.829805E-13  8.829805E-13  8.829805E-13  8.829805E-13  8.829805E-13  8.829805E-13
 8.829804E-13  8.829806E-13  8.829805E-13  8.829805E-13  8.829805E-13  8.829805E-13  8.829805E-13  8.829805E-13  8.829805E-13  8.829805E-13
 8.829804E-13  8.829806E-13  8.829805E-13  8.829805E-13  8.829805E-13  8.829805E-13  8.829805E-13  8.829805E-13  8.829805E-13  8.829805E-13
 8.829804E-13  8.829806E-13  8.829805E-13  8.829805E-13  8.829805E-13  8.829805E-13  8.829805E-13  8.829805E-13  8.829805E-13  8.829805E-13
 8.829804E-13  8.829806E-13  8.829805E-13  8.829805E-13  8.829805E-13  8.829805E-13  8.829805E-13  8.829805E-13  8.829805E-13  8.829805E-13
 8.829804E-13  8.829806E-13  8.829805E-13  8.829805E-13  8.829805E-13  8.829805E-13  8.829805E-13  8.829805E-13  8.829805E-13  8.829805E-13
 8.829806E-13  8.829806E-13  8.829805E-13  8.829805E-13  8.829805E-13  8.829805E-13  8.829805E-13  8.829805E-13  8.829805E-13  8.829805E-13
 8.829806E-13  8.829806E-13  8.829805E-13  8.829805E-13  8.829805E-13  8.829805E-13  8.829805E-13  8.829805E-13  8.829805E-13  8.829805E-13
 8.829807E-13  8.829806E-13  8.829806E-13  8.829805E-13  8.829805E-13  8.829805E-13  8.829805E-13  8.829805E-13  8.829805E-13  8.829805E-13
 8.829807E-13  8.829806E-13  8.829806E-13  8.829805E-13  8.829805E-13  8.829805E-13  8.829805E-13  8.829805E-13  8.829805E-13  8.829805E-13
 8.829807E-13  8.829806E-13  8.829806E-13  8.829805E-13  8.829805E-13  8.829805E-13  8.829805E-13  8.829805E-13  8.829805E-13  8.829805E-13
 8.829807E-13  8.829806E-13  8.829806E-13  8.829805E-13  8.829805E-13  8.829805E-13  8.829805E-13  8.829805E-13  8.829805E-13  8.829805E-13


SCALARS Liquid_Pressure      float 1
LOOKUP_TABLE default
 8.102782E+06  7.756614E+06  7.626111E+06  7.570660E+06  7.547266E+06  7.536467E+06  7.528625E+06  7.518726E+06  7.504522E+06  7.486583E+06
 8.057620E+06  7.711456E+06  7.580957E+06  7.525506E+06  7.502113E+06  7.491314E+06  7.483473E+06  7.473574E+06  7.459370E+06  7.441432E+06
 8.012464E+06  7.666299E+06  7.535803E+06  7.480354E+06  7.456961E+06  7.446163E+06  7.438322E+06  7.428423E+06  7.414219E+06  7.396282E+06
 7.967314E+06  7.621143E+06  7.490651E+06  7.435203E+06  7.411811E+06  7.401013E+06  7.393172E+06  7.383273E+06  7.369070E+06  7.351133E+06
 7.922170E+06  7.575989E+06  7.445500E+06  7.390054E+06  7.366662E+06  7.355864E+06  7.348023E+06  7.338125E+06  7.323922E+06  7.305985E+06
 7.877031E+06  7.530836E+06  7.400350E+06  7.344905E+06  7.321514E+06  7.310716E+06  7.302876E+06  7.292978E+06  7.278775E+06  7.260839E+06
 7.831900E+06  7.485684E+06  7.355201E+06  7.299758E+06  7.276368E+06  7.265570E+06  7.257730E+06  7.247832E+06  7.233630E+06  7.215694E+06
 7.786762E+06  7.440533E+06  7.310054E+06  7.254612E+06  7.231222E+06  7.220425E+06  7.212585E+06  7.202687E+06  7.188486E+06  7.170550E+06
 7.741618E+06  7.395384E+06  7.264908E+06  7.209468E+06  7.186078E+06  7.175281E+06  7.167441E+06  7.157544E+06  7.143343E+06  7.125408E+06
 7.696468E+06  7.350236E+06  7.219763E+06  7.164324E+06  7.140935E+06  7.130139E+06  7.122299E+06  7.112402E+06  7.098201E+06  7.080267E+06
 7.651313E+06  7.305089E+06  7.174620E+06  7.119182E+06  7.095794E+06  7.084997E+06  7.077158E+06  7.067261E+06  7.053061E+06  7.035127E+06
 7.606151E+06  7.259943E+06  7.129477E+06  7.074041E+06  7.050654E+06  7.039857E+06  7.032018E+06  7.022122E+06  7.007921E+06  6.989988E+06
 7.560984E+06  7.214799E+06  7.084336E+06  7.028902E+06  7.005515E+06  6.994719E+06  6.986880E+06  6.976983E+06  6.962784E+06  6.944851E+06
 7.515811E+06  7.169656E+06  7.039197E+06  6.983763E+06  6.960377E+06  6.949581E+06  6.941742E+06  6.931846E+06  6.917647E+06  6.899714E+06
 7.470632E+06  7.124514E+06  6.994058E+06  6.938626E+06  6.915241E+06  6.904445E+06  6.896606E+06  6.886711E+06  6.872512E+06  6.854579E+06
 7.425459E+06  7.079374E+06  6.948921E+06  6.893491E+06  6.870105E+06  6.859310E+06  6.851472E+06  6.841576E+06  6.827377E+06  6.809446E+06
 7.380292E+06  7.034235E+06  6.903785E+06  6.848356E+06  6.824971E+06  6.814177E+06  6.806338E+06  6.796443E+06  6.782245E+06  6.764313E+06
 7.335131E+06  6.989097E+06  6.858651E+06  6.803223E+06  6.779839E+06  6.769044E+06  6.761206E+06  6.751311E+06  6.737113E+06  6.719182E+06
 7.289976E+06  6.943960E+06  6.813517E+06  6.758091E+06  6.734707E+06  6.723913E+06  6.716075E+06  6.706180E+06  6.691983E+06  6.674052E+06
 7.244827E+06  6.898825E+06  6.768385E+06  6.712960E+06  6.689577E+06  6.678783E+06  6.670945E+06  6.661051E+06  6.646854E+06  6.628924E+06


SCALARS Temperature          float 1
LOOKUP_TABLE default
 1.500351E+02  1.500147E+02  1.500069E+02  1.500037E+02  1.500023E+02  1.500016E+02  1.500012E+02  1.500006E+02  1.499998E+02  1.499987E+02
 1.500351E+02  1.500147E+02  1.500070E+02  1.500037E+02  1.500023E+02  1.500016E+02  1.500012E+02  1.500006E+02  1.499998E+02  1.499987E+02
 1.500351E+02  1.500147E+02  1.500070E+02  1.500037E+02  1.500023E+02  1.500016E+02  1.500012E+02  1.500006E+02  1.499998E+02  1.499987E+02
 1.500351E+02  1.500147E+02  1.500070E+02  1.500037E+02  1.500023E+02  1.500016E+02  1.500012E+02  1.500006E+02  1.499998E+02  1.499987E+02
 1.500351E+02  1.500147E+02  1.500070E+02  1.500037E+02  1.500023E+02  1.500016E+02  1.500012E+02  1.500006E+02  1.499998E+02  1.499987E+02
 1.500351E+02  1.500147E+02  1.500070E+02  1.500037E+02  1.500023E+02  1.500016E+02  1.500012E+02  1.500006E+02  1.499998E+02  1.499987E+02
 1.500351E+02  1.500147E+02  1.500070E+02  1.500037E+02  1.500023E+02  1.500016E+02  1.500012E+02  1.500006E+02  1.499998E+02  1.499987E+02
 1.500351E+02  1.500147E+02  1.500070E+02  1.500037E+02  1.500023E+02  1.500016E+02  1.500012E+02  1.500006E+02  1.499998E+02  1.499987E+02
 1.500351E+02  1.500147E+02  1.500070E+02  1.500037E+02  1.500023E+02  1.500016E+02  1.500012E+02  1.500006E+02  1.499998E+02  1.499987E+02
 1.500351E+02  1.500147E+02  1.500070E+02  1.500037E+02  1.500023E+02  1.500016E+02  1.500012E+02  1.500006E+02  1.499998E+02  1.499987E+02
 1.500352E+02  1.500147E+02  1.500070E+02  1.500037E+02  1.500023E+02  1.500016E+02  1.500012E+02  1.500006E+02  1.499998E+02  1.499987E+02
 1.500352E+02  1.500147E+02  1.500070E+02  1.500037E+02  1.500023E+02  1.500016E+02  1.500012E+02  1.500006E+02  1.499998E+02  1.499987E+02
 1.500352E+02  1.500147E+02  1.500070E+02  1.500037E+02  1.500023E+02  1.500017E+02  1.500012E+02  1.500006E+02  1.499998E+02  1.499987E+02
 1.500352E+02  1.500147E+02  1.500070E+02  1.500037E+02  1.500023E+02  1.500017E+02  1.500012E+02  1.500006E+02  1.499998E+02  1.499987E+02
 1.500352E+02  1.500147E+02  1.500070E+02  1.500037E+02  1.500023E+02  1.500017E+02  1.500012E+02  1.500006E+02  1.499998E+02  1.499987E+02
 1.500352E+02  1.500147E+02  1.500070E+02  1.500037E+02  1.500023E+02  1.500017E+02  1.500012E+02  1.500006E+02  1.499998E+02  1.499987E+02
 1.500352E+02  1.500147E+02  1.500070E+02  1.500037E+02  1.500023E+02  1.500017E+02  1.500012E+02  1.500006E+02  1.499998E+02  1.499987E+02
 1.500352E+02  1.500147E+02  1.500070E+02  1.500037E+02  1.500023E+02  1.500017E+02  1.500012E+02  1.500006E+02  1.499998E+02  1.499987E+02
 1.500352E+02  1.500147E+02  1.500070E+02  1.500037E+02  1.500023E+02  1.500017E+02  1.500012E+02  1.500006E+02  1.499998E+02  1.499987E+02
 1.500352E+02  1.500147E+02  1.500070E+02  1.500037E+02  1.500023E+02  1.500017E+02  1.500012E+02  1.500006E+02  1.499998E+02  1.499987E+02


SCALARS pH                   float 1
LOOKUP_TABLE default
 6.144218E+00  6.144188E+00  6.144176E+00  6.144171E+00  6.144169E+00  6.144168E+00  6.144168E+00  6.144167E+00  6.144165E+00  6.144164E+00
 6.144218E+00  6.144188E+00  6.144176E+00  6.144171E+00  6.144169E+00  6.144168E+00  6.144168E+00  6.144167E+00  6.144165E+00  6.144164E+00
 6.144218E+00  6.144188E+00  6.144176E+00  6.144171E+00  6.144169E+00  6.144168E+00  6.144168E+00  6.144167E+00  6.144165E+00  6.144164E+00
 6.144218E+00  6.144188E+00  6.144176E+00  6.144171E+00  6.144169E+00  6.144168E+00  6.144168E+00  6.144167E+00  6.144165E+00  6.144164E+00
 6.144218E+00  6.144188E+00  6.144176E+00  6.144171E+00  6.144169E+00  6.144168E+00  6.144168E+00  6.144167E+00  6.144165E+00  6.144164E+00
 6.144218E+00  6.144188E+00  6.144176E+00  6.144171E+00  6.144169E+00  6.144168E+00  6.144168E+00  6.144167E+00  6.144165E+00  6.144164E+00
 6.144218E+00  6.144188E+00  6.144176E+00  6.144171E+00  6.144169E+00  6.144168E+00  6.144168E+00  6.144167E+00  6.144165E+00  6.144164E+00
 6.144218E+00  6.144188E+00  6.144176E+00  6.144171E+00  6.144169E+00  6.144168E+00  6.144168E+00  6.144167E+00  6.144165E+00  6.144164E+00
 6.144218E+00  6.144188E+00  6.144176E+00  6.144171E+00  6.144169E+00  6.144168E+00  6.144168E+00  6.144167E+00  6.144165E+00  6.144164E+00
 6.144218E+00  6.144188E+00  6.144176E+00  6.144171E+00  6.144169E+00  6.144168E+00  6.144168E+00  6.144167E+00  6.144165E+00  6.144164E+00
 6.144218E+00  6.144188E+00  6.144176E+00  6.144171E+00  6.144169E+00  6.144168E+00  6.144168E+00  6.144167E+00  6.144165E+00  6.144164E+00
 6.144218E+00  6.144188E+00  6.144176E+00  6.144171E+00  6.144169E+00  6.144168E+00  6.144168E+00  6.144167E+00  6.144165E+00  6.144164E+00
 6.144218E+00  6.144188E+00  6.144176E+00  6.144171E+00  6.144169E+00  6.144168E+00  6.144168E+00  6.144167E+00  6.144165E+00  6.144164E+00
 6.144218E+00  6.144188E+00  6.144176E+00  6.144171E+00  6.144169E+00  6.144168E+00  6.144168E+00  6.144167E+00  6.144165E+00  6.144164E+00
 6.144219E+00  6.144188E+00  6.144176E+00  6.144171E+00  6.144169E+00  6.144168E+00  6.144168E+00  6.144167E+00  6.144165E+00  6.144164E+00
 6.144219E+00  6.144188E+00  6.144176E+00  6.144171E+00  6.144169E+00  6.144168E+00  6.144168E+00  6.144167E+00  6.144165E+00  6.144164E+00
 6.144219E+00  6.144188E+00  6.144176E+00  6.144171E+00  6.144169E+00  6.144168E+00  6.144168E+00  6.144167E+00  6.144165E+00  6.144164E+00
 6.144219E+00  6.144188E+00  6.144176E+00  6.144171E+00  6.144169E+00  6.144168E+00  6.144168E+00  6.144167E+00  6.144165E+00  6.144164E+00
 6.144219E+00  6.144188E+00  6.144176E+00  6.144171E+00  6.144169E+00  6.144168E+00  6.144168E+00  6.144167E+00  6.144165E+00  6.144164E+00
 6.144219E+00  6.144188E+00  6.144176E+00  6.144171E+00  6.144169E+00  6.144168E+00  6.144168E+00  6.144167E+00  6.144165E+00  6.144164E+00


SCALARS Total_H+             float 1
LOOKUP_TABLE default
-3.054410E-03 -3.055134E-03 -3.055408E-03 -3.055525E-03 -3.055574E-03 -3.055597E-03 -3.055614E-03 -3.055634E-03 -3.055664E-03 -3.055702E-03
-3.054410E-03 -3.055134E-03 -3.055408E-03 -3.055525E-03 -3.055574E-03 -3.055597E-03 -3.055613E-03 -3.055634E-03 -3.055664E-03 -3.055702E-03
-3.054410E-03 -3.055133E-03 -3.055408E-03 -3.055525E-03 -3.055574E-03 -3.055597E-03 -3.055613E-03 -3.055634E-03 -3.055664E-03 -3.055701E-03
-3.054409E-03 -3.055133E-03 -3.055408E-03 -3.055524E-03 -3.055574E-03 -3.055596E-03 -3.055613E-03 -3.055634E-03 -3.055664E-03 -3.055701E-03
-3.054409E-03 -3.055133E-03 -3.055407E-03 -3.055524E-03 -3.055573E-03 -3.055596E-03 -3.055613E-03 -3.055634E-03 -3.055663E-03 -3.055701E-03
-3.054409E-03 -3.055133E-03 -3.055407E-03 -3.055524E-03 -3.055573E-03 -3.055596E-03 -3.055613E-03 -3.055633E-03 -3.055663E-03 -3.055701E-03
-3.054377E-03 -3.055132E-03 -3.055407E-03 -3.055524E-03 -3.055573E-03 -3.055596E-03 -3.055612E-03 -3.055633E-03 -3.055663E-03 -3.055700E-03
-3.054377E-03 -3.055132E-03 -3.055407E-03 -3.055524E-03 -3.055573E-03 -3.055596E-03 -3.055612E-03 -3.055633E-03 -3.055663E-03 -3.055700E-03
-3.054376E-03 -3.055132E-03 -3.055406E-03 -3.055523E-03 -3.055573E-03 -3.055595E-03 -3.055612E-03 -3.055633E-03 -3.055663E-03 -3.055700E-03
-3.054376E-03 -3.055132E-03 -3.055406E-03 -3.055523E-03 -3.055572E-03 -3.055595E-03 -3.055612E-03 -3.055633E-03 -3.055662E-03 -3.055700E-03
-3.054375E-03 -3.055131E-03 -3.055406E-03 -3.055523E-03 -3.055572E-03 -3.055595E-03 -3.055611E-03 -3.055632E-03 -3.055662E-03 -3.055700E-03
-3.054375E-03 -3.055131E-03 -3.055406E-03 -3.055523E-03 -3.055572E-03 -3.055595E-03 -3.055611E-03 -3.055632E-03 -3.055662E-03 -3.055699E-03
-3.054374E-03 -3.055131E-03 -3.055405E-03 -3.055522E-03 -3.055572E-03 -3.055594E-03 -3.055611E-03 -3.055632E-03 -3.055662E-03 -3.055699E-03
-3.054374E-03 -3.055130E-03 -3.055405E-03 -3.055522E-03 -3.055571E-03 -3.055594E-03 -3.055611E-03 -3.055632E-03 -3.055662E-03 -3.055699E-03
-3.054404E-03 -3.055130E-03 -3.055405E-03 -3.055522E-03 -3.055571E-03 -3.055594E-03 -3.055611E-03 -3.055631E-03 -3.055661E-03 -3.055699E-03
-3.054404E-03 -3.055130E-03 -3.055405E-03 -3.055522E-03 -3.055571E-03 -3.055594E-03 -3.055610E-03 -3.055631E-03 -3.055661E-03 -3.055699E-03
-3.054403E-03 -3.055130E-03 -3.055405E-03 -3.055521E-03 -3.055571E-03 -3.055594E-03 -3.055610E-03 -3.055631E-03 -3.055661E-03 -3.055698E-03
-3.054403E-03 -3.055129E-03 -3.055404E-03 -3.055521E-03 -3.055571E-03 -3.055593E-03 -3.055610E-03 -3.055631E-03 -3.055661E-03 -3.055698E-03
-3.054403E-03 -3.055129E-03 -3.055404E-03 -3.055521E-03 -3.055570E-03 -3.055593E-03 -3.055610E-03 -3.055631E-03 -3.055660E-03 -3.055698E-03
-3.054403E-03 -3.055129E-03 -3.055404E-03 -3.055521E-03 -3.055570E-03 -3.055593E-03 -3.055610E-03 -3.055630E-03 -3.055660E-03 -3.055698E-03


SCALARS Total_SiO2(aq)       float 1
LOOKUP_TABLE default
 1.039503E-02  1.039328E-02  1.039262E-02  1.039235E-02  1.039223E-02  1.039218E-02  1.039214E-02  1.039209E-02  1.039202E-02  1.039193E-02
 1.039504E-02  1.039328E-02  1.039262E-02  1.039235E-02  1.039223E-02  1.039218E-02  1.039214E-02  1.039209E-02  1.039202E-02  1.039193E-02
 1.039504E-02  1.039328E-02  1.039262E-02  1.039235E-02  1.039223E-02  1.039218E-02  1.039214E-02  1.039209E-02  1.039202E-02  1.039193E-02
 1.039504E-02  1.039328E-02  1.039262E-02  1.039235E-02  1.039223E-02  1.039218E-02  1.039214E-02  1.039209E-02  1.039202E-02  1.039193E-02
 1.039504E-02  1.039328E-02  1.039262E-02  1.039235E-02  1.039223E-02  1.039218E-02  1.039214E-02  1.039209E-02  1.039202E-02  1.039193E-02
 1.039504E-02  1.039328E-02  1.039262E-02  1.039235E-02  1.039223E-02  1.039218E-02  1.039214E-02  1.039209E-02  1.039202E-02  1.039193E-02
 1.039526E-02  1.039328E-02  1.039262E-02  1.039235E-02  1.039223E-02  1.039218E-02  1.039214E-02  1.039209E-02  1.039202E-02  1.039193E-02
 1.039526E-02  1.039328E-02  1.039262E-02  1.039235E-02  1.039223E-02  1.039218E-02  1.039214E-02  1.039209E-02  1.039202E-02  1.039193E-02
 1.039527E-02  1.039328E-02  1.039262E-02  1.039235E-02  1.039223E-02  1.039218E-02  1.039214E-02  1.039209E-02  1.039202E-02  1.039193E-02
 1.039527E-02  1.039328E-02  1.039262E-02  1.039235E-02  1.039223E-02  1.039218E-02  1.039214E-02  1.039209E-02  1.039202E-02  1.039193E-02
 1.039527E-02  1.039328E-02  1.039262E-02  1.039235E-02  1.039223E-02  1.039218E-02  1.039214E-02  1.039209E-02  1.039202E-02  1.039193E-02
 1.039527E-02  1.039328E-02  1.039262E-02  1.039235E-02  1.039223E-02  1.039218E-02  1.039214E-02  1.039209E-02  1.039202E-02  1.039193E-02
 1.039527E-02  1.039328E-02  1.039262E-02  1.039235E-02  1.039223E-02  1.039218E-02  1.039214E-02  1.039209E-02  1.039202E-02  1.039193E-02
 1.039527E-02  1.039328E-02  1.039262E-02  1.039235E-02  1.039223E-02  1.039218E-02  1.039214E-02  1.039209E-02  1.039202E-02  1.039193E-02
 1.039504E-02  1.039328E-02  1.039262E-02  1.039235E-02  1.039223E-02  1.039218E-02  1.039214E-02  1.039209E-02  1.039202E-02  1.039193E-02
 1.039504E-02  1.039328E-02  1.039262E-02  1.039235E-02  1.039223E-02  1.039218E-02  1.039214E-02  1.039209E-02  1.039202E-02  1.039193E-02
 1.039504E-02  1.039328E-02  1.039262E-02  1.039235E-02  1.039223E-02  1.039218E-02  1.039214E-02  1.039209E-02  1.039202E-02  1.039193E-02
 1.039504E-02  1.039328E-02  1.039262E-02  1.039235E-02  1.039223E-02  1.039218E-02  1.039214E-02  1.039209E-02  1.039202E-02  1.039193E-02
 1.039504E-02  1.039328E-02  1.039263E-02  1.039235E-02  1.039223E-02  1.039218E-02  1.039214E-02  1.039209E-02  1.039202E-02  1.039193E-02