# vtk DataFile Version 2.0
PFLOTRAN output
ASCII
DATASET UNSTRUCTURED_GRID
POINTS         4242 float
 0.000000E+00  0.000000E+00  0.000000E+00
 2.000000E+02  0.000000E+00  0.000000E+00
 4.000000E+02  0.000000E+00  0.000000E+00
 6.000000E+02  0.000000E+00  0.000000E+00
 8.000000E+02  0.000000E+00  0.000000E+00
 1.000000E+03  0.000000E+00  0.000000E+00
 1.200000E+03  0.000000E+00  0.000000E+00
 1.400000E+03  0.000000E+00  0.000000E+00
 1.600000E+03  0.000000E+00  0.000000E+00
 1.800000E+03  0.000000E+00  0.000000E+00
 2.000000E+03  0.000000E+00  0.000000E+00
 2.200000E+03  0.000000E+00  0.000000E+00
 2.400000E+03  0.000000E+00  0.000000E+00
 2.600000E+03  0.000000E+00  0.000000E+00
 2.800000E+03  0.000000E+00  0.000000E+00
 3.000000E+03  0.000000E+00  0.000000E+00
 3.200000E+03  0.000000E+00  0.000000E+00
 3.400000E+03  0.000000E+00  0.000000E+00
 3.600000E+03  0.000000E+00  0.000000E+00
 3.800000E+03  0.000000E+00  0.000000E+00
 4.000000E+03  0.000000E+00  0.000000E+00
 4.200000E+03  0.000000E+00  0.000000E+00
 4.400000E+03  0.000000E+00  0.000000E+00
 4.600000E+03  0.000000E+00  0.000000E+00
 4.800000E+03  0.000000E+00  0.000000E+00
 5.000000E+03  0.000000E+00  0.000000E+00
 5.200000E+03  0.000000E+00  0.000000E+00
 5.400000E+03  0.000000E+00  0.000000E+00
 5.600000E+03  0.000000E+00  0.000000E+00
 5.800000E+03  0.000000E+00  0.000000E+00
 6.000000E+03  0.000000E+00  0.000000E+00
 6.200000E+03  0.000000E+00  0.000000E+00
 6.400000E+03  0.000000E+00  0.000000E+00
 6.600000E+03  0.000000E+00  0.000000E+00
 6.800000E+03  0.000000E+00  0.000000E+00
 7.000000E+03  0.000000E+00  0.000000E+00
 7.200000E+03  0.000000E+00  0.000000E+00
 7.400000E+03  0.000000E+00  0.000000E+00
 7.600000E+03  0.000000E+00  0.000000E+00
 7.800000E+03  0.000000E+00  0.000000E+00
 8.000000E+03  0.000000E+00  0.000000E+00
 8.200000E+03  0.000000E+00  0.000000E+00
 8.400000E+03  0.000000E+00  0.000000E+00
 8.600000E+03  0.000000E+00  0.000000E+00
 8.800000E+03  0.000000E+00  0.000000E+00
 9.000000E+03  0.000000E+00  0.000000E+00
 9.200000E+03  0.000000E+00  0.000000E+00
 9.400000E+03  0.000000E+00  0.000000E+00
 9.600000E+03  0.000000E+00  0.000000E+00
 9.800000E+03  0.000000E+00  0.000000E+00
 1.000000E+04  0.000000E+00  0.000000E+00
 1.020000E+04  0.000000E+00  0.000000E+00
 1.040000E+04  0.000000E+00  0.000000E+00
 1.060000E+04  0.000000E+00  0.000000E+00
 1.080000E+04  0.000000E+00  0.000000E+00
 1.100000E+04  0.000000E+00  0.000000E+00
 1.120000E+04  0.000000E+00  0.000000E+00
 1.140000E+04  0.000000E+00  0.000000E+00
 1.160000E+04  0.000000E+00  0.000000E+00
 1.180000E+04  0.000000E+00  0.000000E+00
 1.200000E+04  0.000000E+00  0.000000E+00
 1.220000E+04  0.000000E+00  0.000000E+00
 1.240000E+04  0.000000E+00  0.000000E+00
 1.260000E+04  0.000000E+00  0.000000E+00
 1.280000E+04  0.000000E+00  0.000000E+00
 1.300000E+04  0.000000E+00  0.000000E+00
 1.320000E+04  0.000000E+00  0.000000E+00
 1.340000E+04  0.000000E+00  0.000000E+00
 1.360000E+04  0.000000E+00  0.000000E+00
 1.380000E+04  0.000000E+00  0.000000E+00
 1.400000E+04  0.000000E+00  0.000000E+00
 1.420000E+04  0.000000E+00  0.000000E+00
 1.440000E+04  0.000000E+00  0.000000E+00
 1.460000E+04  0.000000E+00  0.000000E+00
 1.480000E+04  0.000000E+00  0.000000E+00
 1.500000E+04  0.000000E+00  0.000000E+00
 1.520000E+04  0.000000E+00  0.000000E+00
 1.540000E+04  0.000000E+00  0.000000E+00
 1.560000E+04  0.000000E+00  0.000000E+00
 1.580000E+04  0.000000E+00  0.000000E+00
 1.600000E+04  0.000000E+00  0.000000E+00
 1.620000E+04  0.000000E+00  0.000000E+00
 1.640000E+04  0.000000E+00  0.000000E+00
 1.660000E+04  0.000000E+00  0.000000E+00
 1.680000E+04  0.000000E+00  0.000000E+00
 1.700000E+04  0.000000E+00  0.000000E+00
 1.720000E+04  0.000000E+00  0.000000E+00
 1.740000E+04  0.000000E+00  0.000000E+00
 1.760000E+04  0.000000E+00  0.000000E+00
 1.780000E+04  0.000000E+00  0.000000E+00
 1.800000E+04  0.000000E+00  0.000000E+00
 1.820000E+04  0.000000E+00  0.000000E+00
 1.840000E+04  0.000000E+00  0.000000E+00
 1.860000E+04  0.000000E+00  0.000000E+00
 1.880000E+04  0.000000E+00  0.000000E+00
 1.900000E+04  0.000000E+00  0.000000E+00
 1.920000E+04  0.000000E+00  0.000000E+00
 1.940000E+04  0.000000E+00  0.000000E+00
 1.960000E+04  0.000000E+00  0.000000E+00
 1.980000E+04  0.000000E+00  0.000000E+00
 2.000000E+04  0.000000E+00  0.000000E+00
 0.000000E+00  1.000000E+00  0.000000E+00
 2.000000E+02  1.000000E+00  0.000000E+00
 4.000000E+02  1.000000E+00  0.000000E+00
 6.000000E+02  1.000000E+00  0.000000E+00
 8.000000E+02  1.000000E+00  0.000000E+00
 1.000000E+03  1.000000E+00  0.000000E+00
 1.200000E+03  1.000000E+00  0.000000E+00
 1.400000E+03  1.000000E+00  0.000000E+00
 1.600000E+03  1.000000E+00  0.000000E+00
 1.800000E+03  1.000000E+00  0.000000E+00
 2.000000E+03  1.000000E+00  0.000000E+00
 2.200000E+03  1.000000E+00  0.000000E+00
 2.400000E+03  1.000000E+00  0.000000E+00
 2.600000E+03  1.000000E+00  0.000000E+00
 2.800000E+03  1.000000E+00  0.000000E+00
 3.000000E+03  1.000000E+00  0.000000E+00
 3.200000E+03  1.000000E+00  0.000000E+00
 3.400000E+03  1.000000E+00  0.000000E+00
 3.600000E+03  1.000000E+00  0.000000E+00
 3.800000E+03  1.000000E+00  0.000000E+00
 4.000000E+03  1.000000E+00  0.000000E+00
 4.200000E+03  1.000000E+00  0.000000E+00
 4.400000E+03  1.000000E+00  0.000000E+00
 4.600000E+03  1.000000E+00  0.000000E+00
 4.800000E+03  1.000000E+00  0.000000E+00
 5.000000E+03  1.000000E+00  0.000000E+00
 5.200000E+03  1.000000E+00  0.000000E+00
 5.400000E+03  1.000000E+00  0.000000E+00
 5.600000E+03  1.000000E+00  0.000000E+00
 5.800000E+03  1.000000E+00  0.000000E+00
 6.000000E+03  1.000000E+00  0.000000E+00
 6.200000E+03  1.000000E+00  0.000000E+00
 6.400000E+03  1.000000E+00  0.000000E+00
 6.600000E+03  1.000000E+00  0.000000E+00
 6.800000E+03  1.000000E+00  0.000000E+00
 7.000000E+03  1.000000E+00  0.000000E+00
 7.200000E+03  1.000000E+00  0.000000E+00
 7.400000E+03  1.000000E+00  0.000000E+00
 7.600000E+03  1.000000E+00  0.000000E+00
 7.800000E+03  1.000000E+00  0.000000E+00
 8.000000E+03  1.000000E+00  0.000000E+00
 8.200000E+03  1.000000E+00  0.000000E+00
 8.400000E+03  1.000000E+00  0.000000E+00
 8.600000E+03  1.000000E+00  0.000000E+00
 8.800000E+03  1.000000E+00  0.000000E+00
 9.000000E+03  1.000000E+00  0.000000E+00
 9.200000E+03  1.000000E+00  0.000000E+00
 9.400000E+03  1.000000E+00  0.000000E+00
 9.600000E+03  1.000000E+00  0.000000E+00
 9.800000E+03  1.000000E+00  0.000000E+00
 1.000000E+04  1.000000E+00  0.000000E+00
 1.020000E+04  1.000000E+00  0.000000E+00
 1.040000E+04  1.000000E+00  0.000000E+00
 1.060000E+04  1.000000E+00  0.000000E+00
 1.080000E+04  1.000000E+00  0.000000E+00
 1.100000E+04  1.000000E+00  0.000000E+00
 1.120000E+04  1.000000E+00  0.000000E+00
 1.140000E+04  1.000000E+00  0.000000E+00
 1.160000E+04  1.000000E+00  0.000000E+00
 1.180000E+04  1.000000E+00  0.000000E+00
 1.200000E+04  1.000000E+00  0.000000E+00
 1.220000E+04  1.000000E+00  0.000000E+00
 1.240000E+04  1.000000E+00  0.000000E+00
 1.260000E+04  1.000000E+00  0.000000E+00
 1.280000E+04  1.000000E+00  0.000000E+00
 1.300000E+04  1.000000E+00  0.000000E+00
 1.320000E+04  1.000000E+00  0.000000E+00
 1.340000E+04  1.000000E+00  0.000000E+00
 1.360000E+04  1.000000E+00  0.000000E+00
 1.380000E+04  1.000000E+00  0.000000E+00
 1.400000E+04  1.000000E+00  0.000000E+00
 1.420000E+04  1.000000E+00  0.000000E+00
 1.440000E+04  1.000000E+00  0.000000E+00
 1.460000E+04  1.000000E+00  0.000000E+00
 1.480000E+04  1.000000E+00  0.000000E+00
 1.500000E+04  1.000000E+00  0.000000E+00
 1.520000E+04  1.000000E+00  0.000000E+00
 1.540000E+04  1.000000E+00  0.000000E+00
 1.560000E+04  1.000000E+00  0.000000E+00
 1.580000E+04  1.000000E+00  0.000000E+00
 1.600000E+04  1.000000E+00  0.000000E+00
 1.620000E+04  1.000000E+00  0.000000E+00
 1.640000E+04  1.000000E+00  0.000000E+00
 1.660000E+04  1.000000E+00  0.000000E+00
 1.680000E+04  1.000000E+00  0.000000E+00
 1.700000E+04  1.000000E+00  0.000000E+00
 1.720000E+04  1.000000E+00  0.000000E+00
 1.740000E+04  1.000000E+00  0.000000E+00
 1.760000E+04  1.000000E+00  0.000000E+00
 1.780000E+04  1.000000E+00  0.000000E+00
 1.800000E+04  1.000000E+00  0.000000E+00
 1.820000E+04  1.000000E+00  0.000000E+00
 1.840000E+04  1.000000E+00  0.000000E+00
 1.860000E+04  1.000000E+00  0.000000E+00
 1.880000E+04  1.000000E+00  0.000000E+00
 1.900000E+04  1.000000E+00  0.000000E+00
 1.920000E+04  1.000000E+00  0.000000E+00
 1.940000E+04  1.000000E+00  0.000000E+00
 1.960000E+04  1.000000E+00  0.000000E+00
 1.980000E+04  1.000000E+00  0.000000E+00
 2.000000E+04  1.000000E+00  0.000000E+00
 0.000000E+00  0.000000E+00  1.500000E+01
 2.000000E+02  0.000000E+00  1.500000E+01
 4.000000E+02  0.000000E+00  1.500000E+01
 6.000000E+02  0.000000E+00  1.500000E+01
 8.000000E+02  0.000000E+00  1.500000E+01
 1.000000E+03  0.000000E+00  1.500000E+01
 1.200000E+03  0.000000E+00  1.500000E+01
 1.400000E+03  0.000000E+00  1.500000E+01
 1.600000E+03  0.000000E+00  1.500000E+01
 1.800000E+03  0.000000E+00  1.500000E+01
 2.000000E+03  0.000000E+00  1.500000E+01
 2.200000E+03  0.000000E+00  1.500000E+01
 2.400000E+03  0.000000E+00  1.500000E+01
 2.600000E+03  0.000000E+00  1.500000E+01
 2.800000E+03  0.000000E+00  1.500000E+01
 3.000000E+03  0.000000E+00  1.500000E+01
 3.200000E+03  0.000000E+00  1.500000E+01
 3.400000E+03  0.000000E+00  1.500000E+01
 3.600000E+03  0.000000E+00  1.500000E+01
 3.800000E+03  0.000000E+00  1.500000E+01
 4.000000E+03  0.000000E+00  1.500000E+01
 4.200000E+03  0.000000E+00  1.500000E+01
 4.400000E+03  0.000000E+00  1.500000E+01
 4.600000E+03  0.000000E+00  1.500000E+01
 4.800000E+03  0.000000E+00  1.500000E+01
 5.000000E+03  0.000000E+00  1.500000E+01
 5.200000E+03  0.000000E+00  1.500000E+01
 5.400000E+03  0.000000E+00  1.500000E+01
 5.600000E+03  0.000000E+00  1.500000E+01
 5.800000E+03  0.000000E+00  1.500000E+01
 6.000000E+03  0.000000E+00  1.500000E+01
 6.200000E+03  0.000000E+00  1.500000E+01
 6.400000E+03  0.000000E+00  1.500000E+01
[...]
CELL_DATA     2000
SCALARS Vlx                  float 1
LOOKUP_TABLE default
 3.761363E+01  3.670199E+01  3.212913E+01  2.600735E+01  2.108201E+01  1.748283E+01  1.485715E+01  1.289382E+01  1.138181E+01  1.018513E+01
 9.215541E+00  8.414338E+00  7.741258E+00  7.167871E+00  6.673564E+00  6.243035E+00  5.864690E+00  5.529583E+00  5.230702E+00  4.962475E+00
 4.720417E+00  4.500874E+00  4.300846E+00  4.117842E+00  3.949776E+00  3.794891E+00  3.651696E+00  3.518914E+00  3.395451E+00  3.280357E+00
 3.172811E+00  3.072093E+00  2.977573E+00  2.888695E+00  2.804970E+00  2.725962E+00  2.651283E+00  2.580586E+00  2.513562E+00  2.449932E+00
 2.389444E+00  2.331871E+00  2.277007E+00  2.224666E+00  2.174677E+00  2.126885E+00  2.081149E+00  2.037338E+00  1.995334E+00  1.955028E+00
 1.916317E+00  1.879110E+00  1.843320E+00  1.808868E+00  1.775681E+00  1.743689E+00  1.712830E+00  1.683044E+00  1.654277E+00  1.626476E+00
 1.599594E+00  1.573587E+00  1.548412E+00  1.524030E+00  1.500404E+00  1.477499E+00  1.455283E+00  1.433725E+00  1.412797E+00  1.392471E+00
 1.372722E+00  1.353525E+00  1.334858E+00  1.316698E+00  1.299026E+00  1.281823E+00  1.265069E+00  1.248747E+00  1.232841E+00  1.217336E+00
 1.202215E+00  1.187466E+00  1.173074E+00  1.159027E+00  1.145312E+00  1.131919E+00  1.118835E+00  1.106050E+00  1.093554E+00  1.081337E+00
 1.069390E+00  1.057705E+00  1.046272E+00  1.035085E+00  1.024136E+00  1.013419E+00  1.002928E+00  9.926610E-01  9.826228E-01  9.728499E-01
 4.053297E+01  3.831267E+01  3.266888E+01  2.615960E+01  2.112389E+01  1.749496E+01  1.486126E+01  1.289567E+01  1.138297E+01  1.018604E+01
 9.216331E+00  8.415049E+00  7.741909E+00  7.168472E+00  6.674124E+00  6.243559E+00  5.865181E+00  5.530046E+00  5.231140E+00  4.962891E+00
 4.720812E+00  4.501251E+00  4.301206E+00  4.118186E+00  3.950106E+00  3.795209E+00  3.652002E+00  3.519209E+00  3.395735E+00  3.280632E+00
 3.173077E+00  3.072350E+00  2.977822E+00  2.888937E+00  2.805205E+00  2.726190E+00  2.651504E+00  2.580802E+00  2.513773E+00  2.450137E+00
 2.389644E+00  2.332066E+00  2.277197E+00  2.224852E+00  2.174859E+00  2.127063E+00  2.081323E+00  2.037509E+00  1.995501E+00  1.955191E+00
 1.916477E+00  1.879267E+00  1.843474E+00  1.809020E+00  1.775829E+00  1.743835E+00  1.712973E+00  1.683185E+00  1.654415E+00  1.626612E+00
 1.599728E+00  1.573719E+00  1.548542E+00  1.524157E+00  1.500529E+00  1.477622E+00  1.455405E+00  1.433845E+00  1.412915E+00  1.392588E+00
 1.372837E+00  1.353638E+00  1.334969E+00  1.316808E+00  1.299135E+00  1.281930E+00  1.265174E+00  1.248851E+00  1.232944E+00  1.217437E+00
 1.202316E+00  1.187565E+00  1.173172E+00  1.159124E+00  1.145408E+00  1.132013E+00  1.118928E+00  1.106142E+00  1.093645E+00  1.081427E+00
 1.069480E+00  1.057793E+00  1.046360E+00  1.035172E+00  1.024222E+00  1.013503E+00  1.003011E+00  9.927429E-01  9.827014E-01  9.729024E-01
 4.674121E+01  4.164810E+01  3.373133E+01  2.645141E+01  2.120236E+01  1.751677E+01  1.486795E+01  1.289823E+01  1.138433E+01  1.018701E+01
 9.217136E+00  8.415764E+00  7.742561E+00  7.169074E+00  6.674683E+00  6.244082E+00  5.865673E+00  5.530509E+00  5.231579E+00  4.963307E+00
 4.721207E+00  4.501628E+00  4.301566E+00  4.118531E+00  3.950437E+00  3.795527E+00  3.652307E+00  3.519503E+00  3.396019E+00  3.280907E+00
 3.173342E+00  3.072607E+00  2.978071E+00  2.889179E+00  2.805440E+00  2.726418E+00  2.651726E+00  2.581018E+00  2.513983E+00  2.450342E+00
 2.389844E+00  2.332261E+00  2.277388E+00  2.225038E+00  2.175040E+00  2.127241E+00  2.081497E+00  2.037679E+00  1.995668E+00  1.955355E+00
 1.916638E+00  1.879424E+00  1.843629E+00  1.809171E+00  1.775978E+00  1.743981E+00  1.713116E+00  1.683326E+00  1.654553E+00  1.626748E+00
 1.599862E+00  1.573850E+00  1.548671E+00  1.524285E+00  1.500655E+00  1.477746E+00  1.455526E+00  1.433965E+00  1.413033E+00  1.392704E+00
 1.372951E+00  1.353751E+00  1.335081E+00  1.316918E+00  1.299244E+00  1.282037E+00  1.265280E+00  1.248956E+00  1.233047E+00  1.217539E+00
 1.202416E+00  1.187664E+00  1.173270E+00  1.159221E+00  1.145504E+00  1.132108E+00  1.119022E+00  1.106235E+00  1.093736E+00  1.081518E+00
 1.069569E+00  1.057882E+00  1.046447E+00  1.035258E+00  1.024307E+00  1.013587E+00  1.003094E+00  9.928238E-01  9.827777E-01  9.729592E-01
 5.703026E+01  4.694657E+01  3.527981E+01  2.686105E+01  2.131059E+01  1.754631E+01  1.487669E+01  1.290133E+01  1.138584E+01  1.018801E+01
 9.217951E+00  8.416482E+00  7.743213E+00  7.169676E+00  6.675243E+00  6.244605E+00  5.866164E+00  5.530972E+00  5.232016E+00  4.963722E+00
 4.721602E+00  4.502005E+00  4.301926E+00  4.118876E+00  3.950767E+00  3.795844E+00  3.652613E+00  3.519798E+00  3.396303E+00  3.281181E+00
 3.173608E+00  3.072864E+00  2.978320E+00  2.889420E+00  2.805674E+00  2.726646E+00  2.651948E+00  2.581234E+00  2.514193E+00  2.450547E+00
 2.390043E+00  2.332456E+00  2.277578E+00  2.225224E+00  2.175222E+00  2.127419E+00  2.081671E+00  2.037849E+00  1.995835E+00  1.955518E+00
 1.916798E+00  1.879581E+00  1.843783E+00  1.809322E+00  1.776126E+00  1.744127E+00  1.713260E+00  1.683466E+00  1.654692E+00  1.626884E+00
 1.599996E+00  1.573982E+00  1.548800E+00  1.524412E+00  1.500780E+00  1.477870E+00  1.455648E+00  1.434085E+00  1.413152E+00  1.392820E+00
 1.373066E+00  1.353864E+00  1.335192E+00  1.317028E+00  1.299352E+00  1.282144E+00  1.265386E+00  1.249060E+00  1.233150E+00  1.217641E+00
 1.202517E+00  1.187764E+00  1.173368E+00  1.159318E+00  1.145600E+00  1.132203E+00  1.119115E+00  1.106327E+00  1.093828E+00  1.081608E+00
 1.069658E+00  1.057970E+00  1.046535E+00  1.035345E+00  1.024392E+00  1.013671E+00  1.003176E+00  9.929038E-01  9.828525E-01  9.730193E-01
 7.273661E+01  5.458913E+01  3.724243E+01  2.735538E+01  2.143878E+01  1.758092E+01  1.488676E+01  1.290480E+01  1.138744E+01  1.018905E+01
 9.218774E+00  8.417202E+00  7.743866E+00  7.170278E+00  6.675802E+00  6.245128E+00  5.866655E+00  5.531435E+00  5.232454E+00  4.964137E+00
 4.721997E+00  4.502381E+00  4.302286E+00  4.119220E+00  3.951098E+00  3.796161E+00  3.652918E+00  3.520092E+00  3.396587E+00  3.281455E+00
 3.173873E+00  3.073121E+00  2.978569E+00  2.889662E+00  2.805909E+00  2.726874E+00  2.652170E+00  2.581450E+00  2.514403E+00  2.450752E+00
 2.390243E+00  2.332651E+00  2.277769E+00  2.225410E+00  2.175404E+00  2.127596E+00  2.081845E+00  2.038020E+00  1.996002E+00  1.955682E+00
 1.916958E+00  1.879738E+00  1.843937E+00  1.809473E+00  1.776275E+00  1.744272E+00  1.713403E+00  1.683607E+00  1.654830E+00  1.627020E+00
 1.600129E+00  1.574113E+00  1.548930E+00  1.524540E+00  1.500905E+00  1.477993E+00  1.455770E+00  1.434205E+00  1.413270E+00  1.392937E+00
 1.373181E+00  1.353978E+00  1.335304E+00  1.317138E+00  1.299461E+00  1.282251E+00  1.265492E+00  1.249165E+00  1.233253E+00  1.217743E+00
 1.202617E+00  1.187863E+00  1.173466E+00  1.159415E+00  1.145695E+00  1.132297E+00  1.119209E+00  1.106419E+00  1.093919E+00  1.081698E+00
 1.069748E+00  1.058058E+00  1.046622E+00  1.035431E+00  1.024477E+00  1.013755E+00  1.003258E+00  9.929830E-01  9.829265E-01  9.730817E-01
 9.594575E+01  6.512902E+01  3.948826E+01  2.789009E+01  2.157491E+01  1.761738E+01  1.489731E+01  1.290838E+01  1.138908E+01  1.019009E+01
 9.219600E+00  8.417922E+00  7.744519E+00  7.170880E+00  6.676361E+00  6.245651E+00  5.867146E+00  5.531898E+00  5.232892E+00  4.964553E+00
 4.722392E+00  4.502758E+00  4.302646E+00  4.119564E+00  3.951428E+00  3.796479E+00  3.653223E+00  3.520386E+00  3.396871E+00  3.281729E+00
 3.174138E+00  3.073378E+00  2.978818E+00  2.889903E+00  2.806143E+00  2.727102E+00  2.652391E+00  2.581665E+00  2.514613E+00  2.450956E+00
 2.390443E+00  2.332846E+00  2.277959E+00  2.225596E+00  2.175586E+00  2.127774E+00  2.082019E+00  2.038190E+00  1.996168E+00  1.955845E+00
 1.917118E+00  1.879895E+00  1.844091E+00  1.809624E+00  1.776423E+00  1.744418E+00  1.713546E+00  1.683748E+00  1.654968E+00  1.627156E+00
 1.600263E+00  1.574245E+00  1.549059E+00  1.524667E+00  1.501031E+00  1.478116E+00  1.455891E+00  1.434325E+00  1.413388E+00  1.393053E+00
 1.373296E+00  1.354091E+00  1.335415E+00  1.317248E+00  1.299569E+00  1.282358E+00  1.265597E+00  1.249269E+00  1.233356E+00  1.217844E+00
 1.202718E+00  1.187962E+00  1.173564E+00  1.159511E+00  1.145791E+00  1.132392E+00  1.119302E+00  1.106512E+00  1.094011E+00  1.081789E+00
 1.069837E+00  1.058147E+00  1.046709E+00  1.035517E+00  1.024562E+00  1.013839E+00  1.003340E+00  9.930616E-01  9.829998E-01  9.731459E-01
 1.295900E+02  7.925794E+01  4.178875E+01  2.841145E+01  2.170574E+01  1.765228E+01  1.490742E+01  1.291185E+01  1.139069E+01  1.019112E+01
 9.220423E+00  8.418642E+00  7.745172E+00  7.171481E+00  6.676921E+00  6.246173E+00  5.867637E+00  5.532360E+00  5.233329E+00  4.964967E+00
 4.722787E+00  4.503134E+00  4.303005E+00  4.119909E+00  3.951758E+00  3.796796E+00  3.653528E+00  3.520680E+00  3.397155E+00  3.282003E+00
 3.174403E+00  3.073634E+00  2.979067E+00  2.890145E+00  2.806377E+00  2.727329E+00  2.652613E+00  2.581881E+00  2.514823E+00  2.451161E+00
 2.390642E+00  2.333040E+00  2.278149E+00  2.225781E+00  2.175767E+00  2.127952E+00  2.082193E+00  2.038360E+00  1.996335E+00  1.956008E+00
 1.917278E+00  1.880052E+00  1.844245E+00  1.809776E+00  1.776571E+00  1.744564E+00  1.713689E+00  1.683888E+00  1.655106E+00  1.627292E+00
 1.600397E+00  1.574376E+00  1.549189E+00  1.524794E+00  1.501156E+00  1.478240E+00  1.456013E+00  1.434444E+00  1.413506E+00  1.393169E+00
 1.373410E+00  1.354204E+00  1.335527E+00  1.317358E+00  1.299678E+00  1.282465E+00  1.265703E+00  1.249373E+00  1.233459E+00  1.217946E+00
 1.202818E+00  1.188061E+00  1.173662E+00  1.159608E+00  1.145887E+00  1.132486E+00  1.119396E+00  1.106604E+00  1.094102E+00  1.081879E+00
 1.069926E+00  1.058235E+00  1.046796E+00  1.035603E+00  1.024647E+00  1.013922E+00  1.003421E+00  9.931398E-01  9.830729E-01  9.732115E-01
 1.517023E+02  8.911984E+01  4.376093E+01  2.886175E+01  2.181816E+01  1.768229E+01  1.491622E+01  1.291497E+01  1.139220E+01  1.019213E+01
 9.221238E+00  8.419359E+00  7.745824E+00  7.172082E+00  6.677479E+00  6.246696E+00  5.868127E+00  5.532823E+00  5.233767E+00  4.965382E+00
 4.723181E+00  4.503510E+00  4.303365E+00  4.120253E+00  3.952088E+00  3.797113E+00  3.653833E+00  3.520974E+00  3.397438E+00  3.282277E+00
 3.174668E+00  3.073891E+00  2.979315E+00  2.890386E+00  2.806612E+00  2.727557E+00  2.652834E+00  2.582096E+00  2.515033E+00  2.451366E+00
 2.390842E+00  2.333235E+00  2.278339E+00  2.225967E+00  2.175949E+00  2.128129E+00  2.082366E+00  2.038530E+00  1.996502E+00  1.956171E+00
 1.917438E+00  1.880209E+00  1.844399E+00  1.809927E+00  1.776720E+00  1.744709E+00  1.713832E+00  1.684029E+00  1.655244E+00  1.627427E+00
 1.600530E+00  1.574508E+00  1.549318E+00  1.524921E+00  1.501281E+00  1.478363E+00  1.456134E+00  1.434564E+00  1.413624E+00  1.393286E+00
 1.373525E+00  1.354317E+00  1.335638E+00  1.317468E+00  1.299786E+00  1.282572E+00  1.265808E+00  1.249477E+00  1.233562E+00  1.218048E+00
 1.202918E+00  1.188160E+00  1.173760E+00  1.159705E+00  1.145982E+00  1.132581E+00  1.119489E+00  1.106696E+00  1.094193E+00  1.081969E+00
 1.070015E+00  1.058323E+00  1.046884E+00  1.035689E+00  1.024732E+00  1.014005E+00  1.003502E+00  9.932176E-01  9.831457E-01  9.732780E-01
 1.649748E+02  9.532245E+01  4.517794E+01  2.919191E+01  2.190080E+01  1.770458E+01  1.492297E+01  1.291753E+01  1.139356E+01  1.019310E+01
 9.222042E+00  8.420073E+00  7.746475E+00  7.172683E+00  6.678038E+00  6.247218E+00  5.868618E+00  5.533285E+00  5.234204E+00  4.965797E+00
 4.723576E+00  4.503886E+00  4.303724E+00  4.120597E+00  3.952418E+00  3.797430E+00  3.654138E+00  3.521268E+00  3.397722E+00  3.282551E+00
 3.174933E+00  3.074147E+00  2.979564E+00  2.890627E+00  2.806846E+00  2.727784E+00  2.653055E+00  2.582312E+00  2.515243E+00  2.451570E+00
 2.391041E+00  2.333430E+00  2.278529E+00  2.226153E+00  2.176130E+00  2.128307E+00  2.082540E+00  2.038700E+00  1.996668E+00  1.956334E+00
 1.917598E+00  1.880366E+00  1.844552E+00  1.810077E+00  1.776868E+00  1.744855E+00  1.713975E+00  1.684169E+00  1.655382E+00  1.627563E+00
 1.600664E+00  1.574639E+00  1.549447E+00  1.525048E+00  1.501406E+00  1.478486E+00  1.456256E+00  1.434684E+00  1.413741E+00  1.393402E+00
 1.373639E+00  1.354430E+00  1.335750E+00  1.317578E+00  1.299894E+00  1.282679E+00  1.265914E+00  1.249581E+00  1.233665E+00  1.218149E+00
 1.203019E+00  1.188259E+00  1.173858E+00  1.159802E+00  1.146078E+00  1.132675E+00  1.119582E+00  1.106789E+00  1.094284E+00  1.082059E+00
 1.070105E+00  1.058411E+00  1.046971E+00  1.035775E+00  1.024817E+00  1.014088E+00  1.003583E+00  9.932952E-01  9.832184E-01  9.733451E-01
 1.712002E+02  9.831836E+01  4.591586E+01  2.936728E+01  2.194532E+01  1.771704E+01  1.492713E+01  1.291940E+01  1.139473E+01  1.019401E+01
 9.222831E+00  8.420783E+00  7.747124E+00  7.173283E+00  6.678596E+00  6.247740E+00  5.869108E+00  5.533747E+00  5.234641E+00  4.966211E+00
 4.723970E+00  4.504262E+00  4.304083E+00  4.120940E+00  3.952748E+00  3.797747E+00  3.654443E+00  3.521562E+00  3.398005E+00  3.282825E+00
 3.175198E+00  3.074404E+00  2.979812E+00  2.890868E+00  2.807080E+00  2.728012E+00  2.653277E+00  2.582527E+00  2.515453E+00  2.451774E+00
 2.391241E+00  2.333624E+00  2.278719E+00  2.226338E+00  2.176312E+00  2.128484E+00  2.082714E+00  2.038870E+00  1.996835E+00  1.956498E+00
 1.917758E+00  1.880523E+00  1.844706E+00  1.810228E+00  1.777016E+00  1.745000E+00  1.714118E+00  1.684309E+00  1.655520E+00  1.627699E+00
 1.600797E+00  1.574770E+00  1.549576E+00  1.525176E+00  1.501532E+00  1.478610E+00  1.456377E+00  1.434803E+00  1.413859E+00  1.393518E+00
 1.373754E+00  1.354542E+00  1.335861E+00  1.317688E+00  1.300003E+00  1.282786E+00  1.266020E+00  1.249686E+00  1.233768E+00  1.218251E+00
 1.203119E+00  1.188358E+00  1.173956E+00  1.159898E+00  1.146173E+00  1.132769E+00  1.119676E+00  1.106881E+00  1.094375E+00  1.082149E+00
 1.070194E+00  1.058499E+00  1.047058E+00  1.035861E+00  1.024901E+00  1.014171E+00  1.003664E+00  9.933726E-01  9.832911E-01  9.734126E-01
 1.712038E+02  9.832197E+01  4.591910E+01  2.936984E+01  2.194725E+01  1.771858E+01  1.492840E+01  1.292049E+01  1.139569E+01  1.019487E+01
 9.223605E+00  8.421488E+00  7.747772E+00  7.173883E+00  6.679154E+00  6.248262E+00  5.869598E+00  5.534209E+00  5.235078E+00  4.966626E+00
 4.724364E+00  4.504638E+00  4.304442E+00  4.121284E+00  3.953077E+00  3.798063E+00  3.654748E+00  3.521855E+00  3.398288E+00  3.283099E+00
 3.175462E+00  3.074660E+00  2.980061E+00  2.891109E+00  2.807314E+00  2.728239E+00  2.653498E+00  2.582742E+00  2.515662E+00  2.451979E+00
 2.391440E+00  2.333819E+00  2.278909E+00  2.226524E+00  2.176493E+00  2.128662E+00  2.082887E+00  2.039040E+00  1.997001E+00  1.956661E+00
 1.917918E+00  1.880680E+00  1.844860E+00  1.810379E+00  1.777164E+00  1.745146E+00  1.714261E+00  1.684450E+00  1.655658E+00  1.627834E+00
 1.600930E+00  1.574901E+00  1.549705E+00  1.525303E+00  1.501657E+00  1.478733E+00  1.456498E+00  1.434923E+00  1.413977E+00  1.393634E+00
 1.373868E+00  1.354655E+00  1.335972E+00  1.317798E+00  1.300111E+00  1.282893E+00  1.266125E+00  1.249790E+00  1.233871E+00  1.218352E+00
 1.203219E+00  1.188457E+00  1.174054E+00  1.159995E+00  1.146269E+00  1.132864E+00  1.119769E+00  1.106973E+00  1.094467E+00  1.082240E+00
 1.070283E+00  1.058587E+00  1.047145E+00  1.035947E+00  1.024986E+00  1.014254E+00  1.003744E+00  9.934499E-01  9.833637E-01  9.734801E-01
 1.649938E+02  9.533830E+01  4.518950E+01  2.919994E+01  2.190665E+01  1.770918E+01  1.492680E+01  1.292082E+01  1.139644E+01  1.019567E+01
 9.224362E+00  8.422188E+00  7.748419E+00  7.174482E+00  6.679712E+00  6.248783E+00  5.870088E+00  5.534671E+00  5.235514E+00  4.967040E+00
 4.724758E+00  4.505013E+00  4.304801E+00  4.121628E+00  3.953407E+00  3.798380E+00  3.655053E+00  3.522149E+00  3.398572E+00  3.283372E+00
 3.175727E+00  3.074916E+00  2.980309E+00  2.891350E+00  2.807548E+00  2.728467E+00  2.653719E+00  2.582957E+00  2.515872E+00  2.452183E+00
 2.391639E+00  2.334013E+00  2.279099E+00  2.226709E+00  2.176674E+00  2.128839E+00  2.083061E+00  2.039210E+00  1.997167E+00  1.956824E+00
 1.918078E+00  1.880836E+00  1.845013E+00  1.810530E+00  1.777312E+00  1.745291E+00  1.714403E+00  1.684590E+00  1.655796E+00  1.627970E+00
 1.601064E+00  1.575033E+00  1.549834E+00  1.525430E+00  1.501782E+00  1.478856E+00  1.456620E+00  1.435042E+00  1.414095E+00  1.393750E+00
 1.373983E+00  1.354768E+00  1.336084E+00  1.317907E+00  1.300219E+00  1.283000E+00  1.266230E+00  1.249894E+00  1.233973E+00  1.218454E+00
 1.203319E+00  1.188556E+00  1.174151E+00  1.160091E+00  1.146364E+00  1.132958E+00  1.119862E+00  1.107065E+00  1.094558E+00  1.082330E+00
 1.070372E+00  1.058675E+00  1.047232E+00  1.036033E+00  1.025070E+00  1.014337E+00  1.003825E+00  9.935273E-01  9.834363E-01  9.735475E-01
 1.517340E+02  8.914652E+01  4.378030E+01  2.887507E+01  2.182788E+01  1.768996E+01  1.492259E+01  1.292044E+01  1.139700E+01  1.019641E+01
 9.225105E+00  8.422885E+00  7.749064E+00  7.175080E+00  6.680269E+00  6.249304E+00  5.870577E+00  5.535132E+00  5.235951E+00  4.967454E+00
 4.725152E+00  4.505389E+00  4.305160E+00  4.121971E+00  3.953736E+00  3.798696E+00  3.655357E+00  3.522442E+00  3.398855E+00  3.283646E+00
 3.175992E+00  3.075172E+00  2.980557E+00  2.891591E+00  2.807781E+00  2.728694E+00  2.653940E+00  2.583172E+00  2.516081E+00  2.452387E+00
 2.391838E+00  2.334208E+00  2.279289E+00  2.226895E+00  2.176856E+00  2.129016E+00  2.083234E+00  2.039380E+00  1.997334E+00  1.956986E+00
 1.918237E+00  1.880993E+00  1.845167E+00  1.810681E+00  1.777460E+00  1.745436E+00  1.714546E+00  1.684730E+00  1.655934E+00  1.628106E+00
 1.601197E+00  1.575164E+00  1.549963E+00  1.525557E+00  1.501907E+00  1.478979E+00  1.456741E+00  1.435162E+00  1.414212E+00  1.393866E+00
 1.374097E+00  1.354881E+00  1.336195E+00  1.318017E+00  1.300328E+00  1.283107E+00  1.266336E+00  1.249998E+00  1.234076E+00  1.218555E+00
 1.203419E+00  1.188655E+00  1.174249E+00  1.160188E+00  1.146460E+00  1.133052E+00  1.119955E+00  1.107157E+00  1.094649E+00  1.082420E+00
 1.070461E+00  1.058763E+00  1.047319E+00  1.036118E+00  1.025155E+00  1.014420E+00  1.003906E+00  9.936047E-01  9.835089E-01  9.736145E-01
 1.296299E+02  7.929315E+01  4.181516E+01  2.842977E+01  2.171923E+01  1.766298E+01  1.491633E+01  1.291951E+01  1.139741E+01  1.019712E+01
 9.225836E+00  8.423577E+00  7.749708E+00  7.175678E+00  6.680826E+00  6.249826E+00  5.871067E+00  5.535594E+00  5.236387E+00  4.967868E+00
 4.725545E+00  4.505764E+00  4.305518E+00  4.122314E+00  3.954066E+00  3.799013E+00  3.655661E+00  3.522736E+00  3.399138E+00  3.283919E+00
 3.176256E+00  3.075428E+00  2.980805E+00  2.891831E+00  2.808015E+00  2.728921E+00  2.654161E+00  2.583387E+00  2.516291E+00  2.452591E+00
 2.392037E+00  2.334402E+00  2.279478E+00  2.227080E+00  2.177037E+00  2.129193E+00  2.083407E+00  2.039549E+00  1.997500E+00  1.957149E+00
 1.918397E+00  1.881149E+00  1.845321E+00  1.810831E+00  1.777608E+00  1.745581E+00  1.714689E+00  1.684870E+00  1.656072E+00  1.628241E+00
 1.601330E+00  1.575295E+00  1.550092E+00  1.525684E+00  1.502032E+00  1.479102E+00  1.456862E+00  1.435281E+00  1.414330E+00  1.393982E+00
 1.374211E+00  1.354994E+00  1.336306E+00  1.318127E+00  1.300436E+00  1.283213E+00  1.266441E+00  1.250102E+00  1.234179E+00  1.218656E+00
 1.203520E+00  1.188754E+00  1.174347E+00  1.160284E+00  1.146555E+00  1.133147E+00  1.120048E+00  1.107250E+00  1.094740E+00  1.082510E+00
 1.070550E+00  1.058851E+00  1.047405E+00  1.036204E+00  1.025239E+00  1.014503E+00  1.003987E+00  9.936824E-01  9.835816E-01  9.736808E-01
 9.600462E+01  6.517656E+01  3.952155E+01  2.791311E+01  2.159207E+01  1.763109E+01  1.490875E+01  1.291823E+01  1.139772E+01  1.019780E+01
 9.226560E+00  8.424268E+00  7.750352E+00  7.176276E+00  6.681383E+00  6.250346E+00  5.871556E+00  5.536055E+00  5.236823E+00  4.968282E+00