# vtk DataFile Version 2.0
PFLOTRAN output
ASCII
DATASET UNSTRUCTURED_GRID
POINTS         4242 float
 0.000000E+00  0.000000E+00  0.000000E+00
 2.000000E+02  0.000000E+00  0.000000E+00
 4.000000E+02  0.000000E+00  0.000000E+00
 6.000000E+02  0.000000E+00  0.000000E+00
 8.000000E+02  0.000000E+00  0.000000E+00
 1.000000E+03  0.000000E+00  0.000000E+00
 1.200000E+03  0.000000E+00  0.000000E+00
 1.400000E+03  0.000000E+00  0.000000E+00
 1.600000E+03  0.000000E+00  0.000000E+00
 1.800000E+03  0.000000E+00  0.000000E+00
 2.000000E+03  0.000000E+00  0.000000E+00
 2.200000E+03  0.000000E+00  0.000000E+00
 2.400000E+03  0.000000E+00  0.000000E+00
 2.600000E+03  0.000000E+00  0.000000E+00
 2.800000E+03  0.000000E+00  0.000000E+00
 3.000000E+03  0.000000E+00  0.000000E+00
 3.200000E+03  0.000000E+00  0.000000E+00
 3.400000E+03  0.000000E+00  0.000000E+00
 3.600000E+03  0.000000E+00  0.000000E+00
 3.800000E+03  0.000000E+00  0.000000E+00
 4.000000E+03  0.000000E+00  0.000000E+00
 4.200000E+03  0.000000E+00  0.000000E+00
 4.400000E+03  0.000000E+00  0.000000E+00
 4.600000E+03  0.000000E+00  0.000000E+00
 4.800000E+03  0.000000E+00  0.000000E+00
 5.000000E+03  0.000000E+00  0.000000E+00
 5.200000E+03  0.000000E+00  0.000000E+00
 5.400000E+03  0.000000E+00  0.000000E+00
 5.600000E+03  0.000000E+00  0.000000E+00
 5.800000E+03  0.000000E+00  0.000000E+00
 6.000000E+03  0.000000E+00  0.000000E+00
 6.200000E+03  0.000000E+00  0.000000E+00
 6.400000E+03  0.000000E+00  0.000000E+00
 6.600000E+03  0.000000E+00  0.000000E+00
 6.800000E+03  0.000000E+00  0.000000E+00
 7.000000E+03  0.000000E+00  0.000000E+00
 7.200000E+03  0.000000E+00  0.000000E+00
 7.400000E+03  0.000000E+00  0.000000E+00
 7.600000E+03  0.000000E+00  0.000000E+00
 7.800000E+03  0.000000E+00  0.000000E+00
 8.000000E+03  0.000000E+00  0.000000E+00
 8.200000E+03  0.000000E+00  0.000000E+00
 8.400000E+03  0.000000E+00  0.000000E+00
 8.600000E+03  0.000000E+00  0.000000E+00
 8.800000E+03  0.000000E+00  0.000000E+00
 9.000000E+03  0.000000E+00  0.000000E+00
 9.200000E+03  0.000000E+00  0.000000E+00
 9.400000E+03  0.000000E+00  0.000000E+00
 9.600000E+03  0.000000E+00  0.000000E+00
 9.800000E+03  0.000000E+00  0.000000E+00
 1.000000E+04  0.000000E+00  0.000000E+00
 1.020000E+04  0.000000E+00  0.000000E+00
 1.040000E+04  0.000000E+00  0.000000E+00
 1.060000E+04  0.000000E+00  0.000000E+00
 1.080000E+04  0.000000E+00  0.000000E+00
 1.100000E+04  0.000000E+00  0.000000E+00
 1.120000E+04  0.000000E+00  0.000000E+00
 1.140000E+04  0.000000E+00  0.000000E+00
 1.160000E+04  0.000000E+00  0.000000E+00
 1.180000E+04  0.000000E+00  0.000000E+00
 1.200000E+04  0.000000E+00  0.000000E+00
 1.220000E+04  0.000000E+00  0.000000E+00
 1.240000E+04  0.000000E+00  0.000000E+00
 1.260000E+04  0.000000E+00  0.000000E+00
 1.280000E+04  0.000000E+00  0.000000E+00
 1.300000E+04  0.000000E+00  0.000000E+00
 1.320000E+04  0.000000E+00  0.000000E+00
 1.340000E+04  0.000000E+00  0.000000E+00
 1.360000E+04  0.000000E+00  0.000000E+00
 1.380000E+04  0.000000E+00  0.000000E+00
 1.400000E+04  0.000000E+00  0.000000E+00
 1.420000E+04  0.000000E+00  0.000000E+00
 1.440000E+04  0.000000E+00  0.000000E+00
 1.460000E+04  0.000000E+00  0.000000E+00
 1.480000E+04  0.000000E+00  0.000000E+00
 1.500000E+04  0.000000E+00  0.000000E+00
 1.520000E+04  0.000000E+00  0.000000E+00
 1.540000E+04  0.000000E+00  0.000000E+00
 1.560000E+04  0.000000E+00  0.000000E+00
 1.580000E+04  0.000000E+00  0.000000E+00
 1.600000E+04  0.000000E+00  0.000000E+00
 1.620000E+04  0.000000E+00  0.000000E+00
 1.640000E+04  0.000000E+00  0.000000E+00
 1.660000E+04  0.000000E+00  0.000000E+00
 1.680000E+04  0.000000E+00  0.000000E+00
 1.700000E+04  0.000000E+00  0.000000E+00
 1.720000E+04  0.000000E+00  0.000000E+00
 1.740000E+04  0.000000E+00  0.000000E+00
 1.760000E+04  0.000000E+00  0.000000E+00
 1.780000E+04  0.000000E+00  0.000000E+00
 1.800000E+04  0.000000E+00  0.000000E+00
 1.820000E+04  0.000000E+00  0.000000E+00
 1.840000E+04  0.000000E+00  0.000000E+00
 1.860000E+04  0.000000E+00  0.000000E+00
 1.880000E+04  0.000000E+00  0.000000E+00
 1.900000E+04  0.000000E+00  0.000000E+00
 1.920000E+04  0.000000E+00  0.000000E+00
 1.940000E+04  0.000000E+00  0.000000E+00
 1.960000E+04  0.000000E+00  0.000000E+00
 1.980000E+04  0.000000E+00  0.000000E+00
 2.000000E+04  0.000000E+00  0.000000E+00
 0.000000E+00  1.000000E+00  0.000000E+00
 2.000000E+02  1.000000E+00  0.000000E+00
 4.000000E+02  1.000000E+00  0.000000E+00
 6.000000E+02  1.000000E+00  0.000000E+00
 8.000000E+02  1.000000E+00  0.000000E+00
 1.000000E+03  1.000000E+00  0.000000E+00
 1.200000E+03  1.000000E+00  0.000000E+00
 1.400000E+03  1.000000E+00  0.000000E+00
 1.600000E+03  1.000000E+00  0.000000E+00
 1.800000E+03  1.000000E+00  0.000000E+00
 2.000000E+03  1.000000E+00  0.000000E+00
 2.200000E+03  1.000000E+00  0.000000E+00
 2.400000E+03  1.000000E+00  0.000000E+00
 2.600000E+03  1.000000E+00  0.000000E+00
 2.800000E+03  1.000000E+00  0.000000E+00
 3.000000E+03  1.000000E+00  0.000000E+00
 3.200000E+03  1.000000E+00  0.000000E+00
 3.400000E+03  1.000000E+00  0.000000E+00
 3.600000E+03  1.000000E+00  0.000000E+00
 3.800000E+03  1.000000E+00  0.000000E+00
 4.000000E+03  1.000000E+00  0.000000E+00
 4.200000E+03  1.000000E+00  0.000000E+00
 4.400000E+03  1.000000E+00  0.000000E+00
 4.600000E+03  1.000000E+00  0.000000E+00
 4.800000E+03  1.000000E+00  0.000000E+00
 5.000000E+03  1.000000E+00  0.000000E+00
 5.200000E+03  1.000000E+00  0.000000E+00
 5.400000E+03  1.000000E+00  0.000000E+00
 5.600000E+03  1.000000E+00  0.000000E+00
 5.800000E+03  1.000000E+00  0.000000E+00
 6.000000E+03  1.000000E+00  0.000000E+00
 6.200000E+03  1.000000E+00  0.000000E+00
 6.400000E+03  1.000000E+00  0.000000E+00
 6.600000E+03  1.000000E+00  0.000000E+00
 6.800000E+03  1.000000E+00  0.000000E+00
 7.000000E+03  1.000000E+00  0.000000E+00
 7.200000E+03  1.000000E+00  0.000000E+00
 7.400000E+03  1.000000E+00  0.000000E+00
 7.600000E+03  1.000000E+00  0.000000E+00
 7.800000E+03  1.000000E+00  0.000000E+00
 8.000000E+03  1.000000E+00  0.000000E+00
 8.200000E+03  1.000000E+00  0.000000E+00
 8.400000E+03  1.000000E+00  0.000000E+00
 8.600000E+03  1.000000E+00  0.000000E+00
 8.800000E+03  1.000000E+00  0.000000E+00
 9.000000E+03  1.000000E+00  0.000000E+00
 9.200000E+03  1.000000E+00  0.000000E+00
 9.400000E+03  1.000000E+00  0.000000E+00
 9.600000E+03  1.000000E+00  0.000000E+00
 9.800000E+03  1.000000E+00  0.000000E+00
 1.000000E+04  1.000000E+00  0.000000E+00
 1.020000E+04  1.000000E+00  0.000000E+00
 1.040000E+04  1.000000E+00  0.000000E+00
 1.060000E+04  1.000000E+00  0.000000E+00
 1.080000E+04  1.000000E+00  0.000000E+00
 1.100000E+04  1.000000E+00  0.000000E+00
 1.120000E+04  1.000000E+00  0.000000E+00
 1.140000E+04  1.000000E+00  0.000000E+00
 1.160000E+04  1.000000E+00  0.000000E+00
 1.180000E+04  1.000000E+00  0.000000E+00
 1.200000E+04  1.000000E+00  0.000000E+00
 1.220000E+04  1.000000E+00  0.000000E+00
 1.240000E+04  1.000000E+00  0.000000E+00
 1.260000E+04  1.000000E+00  0.000000E+00
 1.280000E+04  1.000000E+00  0.000000E+00
 1.300000E+04  1.000000E+00  0.000000E+00
 1.320000E+04  1.000000E+00  0.000000E+00
 1.340000E+04  1.000000E+00  0.000000E+00
 1.360000E+04  1.000000E+00  0.000000E+00
 1.380000E+04  1.000000E+00  0.000000E+00
 1.400000E+04  1.000000E+00  0.000000E+00
 1.420000E+04  1.000000E+00  0.000000E+00
 1.440000E+04  1.000000E+00  0.000000E+00
 1.460000E+04  1.000000E+00  0.000000E+00
 1.480000E+04  1.000000E+00  0.000000E+00
 1.500000E+04  1.000000E+00  0.000000E+00
 1.520000E+04  1.000000E+00  0.000000E+00
 1.540000E+04  1.000000E+00  0.000000E+00
 1.560000E+04  1.000000E+00  0.000000E+00
 1.580000E+04  1.000000E+00  0.000000E+00
 1.600000E+04  1.000000E+00  0.000000E+00
 1.620000E+04  1.000000E+00  0.000000E+00
 1.640000E+04  1.000000E+00  0.000000E+00
 1.660000E+04  1.000000E+00  0.000000E+00
 1.680000E+04  1.000000E+00  0.000000E+00
 1.700000E+04  1.000000E+00  0.000000E+00
 1.720000E+04  1.000000E+00  0.000000E+00
 1.740000E+04  1.000000E+00  0.000000E+00
 1.760000E+04  1.000000E+00  0.000000E+00
 1.780000E+04  1.000000E+00  0.000000E+00
 1.800000E+04  1.000000E+00  0.000000E+00
 1.820000E+04  1.000000E+00  0.000000E+00
 1.840000E+04  1.000000E+00  0.000000E+00
 1.860000E+04  1.000000E+00  0.000000E+00
 1.880000E+04  1.000000E+00  0.000000E+00
 1.900000E+04  1.000000E+00  0.000000E+00
 1.920000E+04  1.000000E+00  0.000000E+00
 1.940000E+04  1.000000E+00  0.000000E+00
 1.960000E+04  1.000000E+00  0.000000E+00
 1.980000E+04  1.000000E+00  0.000000E+00
 2.000000E+04  1.000000E+00  0.000000E+00
 0.000000E+00  0.000000E+00  1.500000E+01
 2.000000E+02  0.000000E+00  1.500000E+01
 4.000000E+02  0.000000E+00  1.500000E+01
 6.000000E+02  0.000000E+00  1.500000E+01
 8.000000E+02  0.000000E+00  1.500000E+01
 1.000000E+03  0.000000E+00  1.500000E+01
 1.200000E+03  0.000000E+00  1.500000E+01
 1.400000E+03  0.000000E+00  1.500000E+01
 1.600000E+03  0.000000E+00  1.500000E+01
 1.800000E+03  0.000000E+00  1.500000E+01
 2.000000E+03  0.000000E+00  1.500000E+01
 2.200000E+03  0.000000E+00  1.500000E+01
 2.400000E+03  0.000000E+00  1.500000E+01
 2.600000E+03  0.000000E+00  1.500000E+01
 2.800000E+03  0.000000E+00  1.500000E+01
 3.000000E+03  0.000000E+00  1.500000E+01
 3.200000E+03  0.000000E+00  1.500000E+01
 3.400000E+03  0.000000E+00  1.500000E+01
 3.600000E+03  0.000000E+00  1.500000E+01
 3.800000E+03  0.000000E+00  1.500000E+01
 4.000000E+03  0.000000E+00  1.500000E+01
 4.200000E+03  0.000000E+00  1.500000E+01
 4.400000E+03  0.000000E+00  1.500000E+01
 4.600000E+03  0.000000E+00  1.500000E+01
 4.800000E+03  0.000000E+00  1.500000E+01
 5.000000E+03  0.000000E+00  1.500000E+01
 5.200000E+03  0.000000E+00  1.500000E+01
 5.400000E+03  0.000000E+00  1.500000E+01
 5.600000E+03  0.000000E+00  1.500000E+01
 5.800000E+03  0.000000E+00  1.500000E+01
 6.000000E+03  0.000000E+00  1.500000E+01
 6.200000E+03  0.000000E+00  1.500000E+01
 6.400000E+03  0.000000E+00  1.500000E+01
[...]
CELL_DATA     2000
SCALARS Vlx                  float 1
LOOKUP_TABLE default
 3.760382E+01  3.669609E+01  3.212698E+01  2.600691E+01  2.108206E+01  1.748294E+01  1.485725E+01  1.289388E+01  1.138185E+01  1.018515E+01
 9.215560E+00  8.414354E+00  7.741271E+00  7.167883E+00  6.673576E+00  6.243048E+00  5.864703E+00  5.529596E+00  5.230717E+00  4.962491E+00
 4.720433E+00  4.500891E+00  4.300864E+00  4.117860E+00  3.949796E+00  3.794912E+00  3.651718E+00  3.518937E+00  3.395475E+00  3.280382E+00
 3.172837E+00  3.072120E+00  2.977600E+00  2.888724E+00  2.805000E+00  2.725992E+00  2.651314E+00  2.580619E+00  2.513596E+00  2.449966E+00
 2.389479E+00  2.331907E+00  2.277044E+00  2.224704E+00  2.174716E+00  2.126925E+00  2.081190E+00  2.037380E+00  1.995377E+00  1.955071E+00
 1.916362E+00  1.879156E+00  1.843367E+00  1.808916E+00  1.775729E+00  1.743739E+00  1.712880E+00  1.683095E+00  1.654329E+00  1.626529E+00
 1.599648E+00  1.573642E+00  1.548468E+00  1.524087E+00  1.500461E+00  1.477557E+00  1.455343E+00  1.433786E+00  1.412858E+00  1.392533E+00
 1.372785E+00  1.353589E+00  1.334922E+00  1.316764E+00  1.299093E+00  1.281890E+00  1.265137E+00  1.248816E+00  1.232911E+00  1.217407E+00
 1.202287E+00  1.187539E+00  1.173148E+00  1.159102E+00  1.145388E+00  1.131995E+00  1.118912E+00  1.106128E+00  1.093633E+00  1.081417E+00
 1.069471E+00  1.057787E+00  1.046355E+00  1.035169E+00  1.024221E+00  1.013504E+00  1.003014E+00  9.927481E-01  9.827106E-01  9.729386E-01
 4.052535E+01  3.830819E+01  3.266733E+01  2.615934E+01  2.112397E+01  1.749508E+01  1.486135E+01  1.289573E+01  1.138301E+01  1.018607E+01
 9.216349E+00  8.415064E+00  7.741921E+00  7.168484E+00  6.674135E+00  6.243571E+00  5.865194E+00  5.530059E+00  5.231155E+00  4.962906E+00
 4.720828E+00  4.501268E+00  4.301224E+00  4.118205E+00  3.950126E+00  3.795230E+00  3.652023E+00  3.519232E+00  3.395759E+00  3.280657E+00
 3.173102E+00  3.072377E+00  2.977849E+00  2.888966E+00  2.805234E+00  2.726220E+00  2.651536E+00  2.580835E+00  2.513806E+00  2.450171E+00
 2.389679E+00  2.332102E+00  2.277235E+00  2.224890E+00  2.174898E+00  2.127103E+00  2.081364E+00  2.037551E+00  1.995544E+00  1.955235E+00
 1.916522E+00  1.879313E+00  1.843521E+00  1.809067E+00  1.775878E+00  1.743884E+00  1.713024E+00  1.683236E+00  1.654467E+00  1.626665E+00
 1.599782E+00  1.573774E+00  1.548597E+00  1.524214E+00  1.500587E+00  1.477681E+00  1.455464E+00  1.433906E+00  1.412977E+00  1.392650E+00
 1.372900E+00  1.353702E+00  1.335034E+00  1.316874E+00  1.299202E+00  1.281997E+00  1.265243E+00  1.248921E+00  1.233015E+00  1.217509E+00
 1.202388E+00  1.187638E+00  1.173246E+00  1.159199E+00  1.145484E+00  1.132090E+00  1.119006E+00  1.106220E+00  1.093724E+00  1.081507E+00
 1.069561E+00  1.057875E+00  1.046443E+00  1.035255E+00  1.024306E+00  1.013588E+00  1.003097E+00  9.928300E-01  9.827893E-01  9.729911E-01
 4.673471E+01  4.164489E+01  3.373058E+01  2.645139E+01  2.120251E+01  1.751690E+01  1.486804E+01  1.289828E+01  1.138437E+01  1.018703E+01
 9.217152E+00  8.415777E+00  7.742572E+00  7.169085E+00  6.674695E+00  6.244094E+00  5.865685E+00  5.530522E+00  5.231593E+00  4.963322E+00
 4.721223E+00  4.501645E+00  4.301584E+00  4.118550E+00  3.950457E+00  3.795547E+00  3.652329E+00  3.519526E+00  3.396043E+00  3.280931E+00
 3.173368E+00  3.072634E+00  2.978099E+00  2.889207E+00  2.805469E+00  2.726448E+00  2.651758E+00  2.581050E+00  2.514016E+00  2.450376E+00
 2.389879E+00  2.332297E+00  2.277425E+00  2.225076E+00  2.175079E+00  2.127281E+00  2.081538E+00  2.037721E+00  1.995711E+00  1.955398E+00
 1.916682E+00  1.879470E+00  1.843675E+00  1.809218E+00  1.776026E+00  1.744030E+00  1.713167E+00  1.683377E+00  1.654605E+00  1.626801E+00
 1.599916E+00  1.573905E+00  1.548727E+00  1.524342E+00  1.500712E+00  1.477805E+00  1.455586E+00  1.434026E+00  1.413095E+00  1.392766E+00
 1.373015E+00  1.353815E+00  1.335146E+00  1.316984E+00  1.299310E+00  1.282105E+00  1.265349E+00  1.249025E+00  1.233118E+00  1.217610E+00
 1.202488E+00  1.187737E+00  1.173344E+00  1.159296E+00  1.145580E+00  1.132185E+00  1.119099E+00  1.106313E+00  1.093816E+00  1.081598E+00
 1.069650E+00  1.057964E+00  1.046530E+00  1.035342E+00  1.024391E+00  1.013673E+00  1.003180E+00  9.929108E-01  9.828656E-01  9.730479E-01
 5.702180E+01  4.694368E+01  3.527995E+01  2.686133E+01  2.131081E+01  1.754645E+01  1.487678E+01  1.290138E+01  1.138587E+01  1.018803E+01
 9.217966E+00  8.416494E+00  7.743224E+00  7.169687E+00  6.675254E+00  6.244616E+00  5.866176E+00  5.530985E+00  5.232030E+00  4.963737E+00
 4.721618E+00  4.502021E+00  4.301944E+00  4.118894E+00  3.950787E+00  3.795865E+00  3.652634E+00  3.519820E+00  3.396327E+00  3.281206E+00
 3.173633E+00  3.072891E+00  2.978348E+00  2.889449E+00  2.805704E+00  2.726676E+00  2.651979E+00  2.581266E+00  2.514226E+00  2.450581E+00
 2.390079E+00  2.332492E+00  2.277615E+00  2.225262E+00  2.175261E+00  2.127459E+00  2.081712E+00  2.037891E+00  1.995878E+00  1.955562E+00
 1.916843E+00  1.879627E+00  1.843829E+00  1.809370E+00  1.776175E+00  1.744176E+00  1.713310E+00  1.683518E+00  1.654744E+00  1.626937E+00
 1.600050E+00  1.574037E+00  1.548856E+00  1.524469E+00  1.500838E+00  1.477928E+00  1.455708E+00  1.434145E+00  1.413213E+00  1.392883E+00
 1.373129E+00  1.353928E+00  1.335257E+00  1.317094E+00  1.299419E+00  1.282212E+00  1.265454E+00  1.249130E+00  1.233221E+00  1.217712E+00
 1.202589E+00  1.187837E+00  1.173442E+00  1.159392E+00  1.145675E+00  1.132279E+00  1.119193E+00  1.106405E+00  1.093907E+00  1.081688E+00
 1.069739E+00  1.058052E+00  1.046617E+00  1.035428E+00  1.024477E+00  1.013757E+00  1.003263E+00  9.929908E-01  9.829404E-01  9.731080E-01
 7.272187E+01  5.458504E+01  3.724343E+01  2.735598E+01  2.143908E+01  1.758107E+01  1.488685E+01  1.290484E+01  1.138747E+01  1.018906E+01
 9.218787E+00  8.417213E+00  7.743876E+00  7.170288E+00  6.675812E+00  6.245139E+00  5.866667E+00  5.531448E+00  5.232468E+00  4.964152E+00
 4.722013E+00  4.502398E+00  4.302304E+00  4.119239E+00  3.951117E+00  3.796182E+00  3.652940E+00  3.520115E+00  3.396611E+00  3.281480E+00
 3.173898E+00  3.073147E+00  2.978596E+00  2.889690E+00  2.805938E+00  2.726904E+00  2.652201E+00  2.581482E+00  2.514437E+00  2.450786E+00
 2.390278E+00  2.332687E+00  2.277806E+00  2.225448E+00  2.175443E+00  2.127636E+00  2.081886E+00  2.038062E+00  1.996045E+00  1.955725E+00
 1.917003E+00  1.879784E+00  1.843983E+00  1.809521E+00  1.776323E+00  1.744322E+00  1.713453E+00  1.683658E+00  1.654882E+00  1.627073E+00
 1.600183E+00  1.574168E+00  1.548986E+00  1.524596E+00  1.500963E+00  1.478052E+00  1.455829E+00  1.434265E+00  1.413331E+00  1.392999E+00
 1.373244E+00  1.354042E+00  1.335369E+00  1.317204E+00  1.299527E+00  1.282319E+00  1.265560E+00  1.249234E+00  1.233324E+00  1.217814E+00
 1.202689E+00  1.187936E+00  1.173540E+00  1.159489E+00  1.145771E+00  1.132374E+00  1.119286E+00  1.106498E+00  1.093998E+00  1.081778E+00
 1.069829E+00  1.058140E+00  1.046705E+00  1.035514E+00  1.024562E+00  1.013840E+00  1.003345E+00  9.930701E-01  9.830144E-01  9.731704E-01
 9.592167E+01  6.512258E+01  3.948999E+01  2.789094E+01  2.157527E+01  1.761754E+01  1.489739E+01  1.290842E+01  1.138911E+01  1.019010E+01
 9.219611E+00  8.417932E+00  7.744528E+00  7.170889E+00  6.676371E+00  6.245661E+00  5.867157E+00  5.531910E+00  5.232905E+00  4.964567E+00
 4.722407E+00  4.502774E+00  4.302663E+00  4.119583E+00  3.951447E+00  3.796499E+00  3.653245E+00  3.520409E+00  3.396894E+00  3.281754E+00
 3.174163E+00  3.073404E+00  2.978845E+00  2.889932E+00  2.806172E+00  2.727132E+00  2.652423E+00  2.581698E+00  2.514647E+00  2.450991E+00
 2.390478E+00  2.332882E+00  2.277996E+00  2.225634E+00  2.175625E+00  2.127814E+00  2.082060E+00  2.038232E+00  1.996211E+00  1.955889E+00
 1.917163E+00  1.879941E+00  1.844137E+00  1.809672E+00  1.776471E+00  1.744467E+00  1.713596E+00  1.683799E+00  1.655020E+00  1.627209E+00
 1.600317E+00  1.574300E+00  1.549115E+00  1.524724E+00  1.501088E+00  1.478175E+00  1.455951E+00  1.434385E+00  1.413449E+00  1.393115E+00
 1.373359E+00  1.354155E+00  1.335480E+00  1.317314E+00  1.299636E+00  1.282426E+00  1.265666E+00  1.249338E+00  1.233427E+00  1.217916E+00
 1.202790E+00  1.188035E+00  1.173638E+00  1.159586E+00  1.145867E+00  1.132468E+00  1.119380E+00  1.106590E+00  1.094090E+00  1.081869E+00
 1.069918E+00  1.058228E+00  1.046792E+00  1.035601E+00  1.024647E+00  1.013924E+00  1.003426E+00  9.931487E-01  9.830877E-01  9.732347E-01
 1.296490E+02  7.928032E+01  4.179130E+01  2.841245E+01  2.170613E+01  1.765244E+01  1.490749E+01  1.291189E+01  1.139071E+01  1.019114E+01
 9.220432E+00  8.418650E+00  7.745180E+00  7.171490E+00  6.676930E+00  6.246183E+00  5.867648E+00  5.532372E+00  5.233342E+00  4.964982E+00
 4.722802E+00  4.503150E+00  4.303023E+00  4.119927E+00  3.951778E+00  3.796816E+00  3.653550E+00  3.520703E+00  3.397178E+00  3.282028E+00
 3.174428E+00  3.073661E+00  2.979094E+00  2.890173E+00  2.806407E+00  2.727360E+00  2.652644E+00  2.581913E+00  2.514856E+00  2.451195E+00
 2.390678E+00  2.333077E+00  2.278186E+00  2.225820E+00  2.175806E+00  2.127992E+00  2.082233E+00  2.038402E+00  1.996378E+00  1.956052E+00
 1.917323E+00  1.880098E+00  1.844291E+00  1.809823E+00  1.776620E+00  1.744613E+00  1.713739E+00  1.683939E+00  1.655158E+00  1.627345E+00
 1.600451E+00  1.574431E+00  1.549244E+00  1.524851E+00  1.501214E+00  1.478298E+00  1.456072E+00  1.434505E+00  1.413567E+00  1.393232E+00
 1.373473E+00  1.354268E+00  1.335592E+00  1.317424E+00  1.299744E+00  1.282533E+00  1.265771E+00  1.249443E+00  1.233530E+00  1.218017E+00
 1.202890E+00  1.188134E+00  1.173736E+00  1.159683E+00  1.145962E+00  1.132563E+00  1.119473E+00  1.106682E+00  1.094181E+00  1.081959E+00
 1.070007E+00  1.058317E+00  1.046879E+00  1.035687E+00  1.024732E+00  1.014007E+00  1.003507E+00  9.932269E-01  9.831608E-01  9.733002E-01
 1.517251E+02  8.913006E+01  4.376346E+01  2.886279E+01  2.181856E+01  1.768244E+01  1.491628E+01  1.291499E+01  1.139221E+01  1.019214E+01
 9.221245E+00  8.419365E+00  7.745831E+00  7.172090E+00  6.677488E+00  6.246705E+00  5.868138E+00  5.532835E+00  5.233780E+00  4.965396E+00
 4.723196E+00  4.503526E+00  4.303382E+00  4.120271E+00  3.952107E+00  3.797133E+00  3.653855E+00  3.520997E+00  3.397462E+00  3.282302E+00
 3.174693E+00  3.073917E+00  2.979343E+00  2.890414E+00  2.806641E+00  2.727587E+00  2.652865E+00  2.582129E+00  2.515066E+00  2.451400E+00
 2.390877E+00  2.333271E+00  2.278376E+00  2.226005E+00  2.175988E+00  2.128169E+00  2.082407E+00  2.038572E+00  1.996545E+00  1.956215E+00
 1.917483E+00  1.880255E+00  1.844445E+00  1.809974E+00  1.776768E+00  1.744759E+00  1.713882E+00  1.684080E+00  1.655296E+00  1.627481E+00
 1.600584E+00  1.574563E+00  1.549374E+00  1.524978E+00  1.501339E+00  1.478422E+00  1.456194E+00  1.434624E+00  1.413685E+00  1.393348E+00
 1.373588E+00  1.354381E+00  1.335703E+00  1.317534E+00  1.299853E+00  1.282640E+00  1.265877E+00  1.249547E+00  1.233633E+00  1.218119E+00
 1.202990E+00  1.188233E+00  1.173834E+00  1.159780E+00  1.146058E+00  1.132657E+00  1.119566E+00  1.106775E+00  1.094272E+00  1.082049E+00
 1.070096E+00  1.058405E+00  1.046966E+00  1.035773E+00  1.024816E+00  1.014090E+00  1.003588E+00  9.933047E-01  9.832337E-01  9.733668E-01
 1.649771E+02  9.532530E+01  4.518011E+01  2.919289E+01  2.190117E+01  1.770471E+01  1.492302E+01  1.291755E+01  1.139357E+01  1.019310E+01
 9.222047E+00  8.420078E+00  7.746481E+00  7.172690E+00  6.678046E+00  6.247227E+00  5.868628E+00  5.533296E+00  5.234216E+00  4.965811E+00
 4.723590E+00  4.503902E+00  4.303741E+00  4.120615E+00  3.952437E+00  3.797450E+00  3.654160E+00  3.521290E+00  3.397745E+00  3.282576E+00
 3.174958E+00  3.074174E+00  2.979591E+00  2.890655E+00  2.806875E+00  2.727815E+00  2.653087E+00  2.582344E+00  2.515276E+00  2.451604E+00
 2.391077E+00  2.333466E+00  2.278566E+00  2.226191E+00  2.176169E+00  2.128347E+00  2.082581E+00  2.038742E+00  1.996711E+00  1.956378E+00
 1.917643E+00  1.880412E+00  1.844599E+00  1.810125E+00  1.776916E+00  1.744904E+00  1.714025E+00  1.684220E+00  1.655434E+00  1.627616E+00
 1.600718E+00  1.574694E+00  1.549503E+00  1.525105E+00  1.501464E+00  1.478545E+00  1.456315E+00  1.434744E+00  1.413803E+00  1.393464E+00
 1.373702E+00  1.354494E+00  1.335815E+00  1.317644E+00  1.299961E+00  1.282747E+00  1.265983E+00  1.249651E+00  1.233735E+00  1.218220E+00
 1.203091E+00  1.188332E+00  1.173932E+00  1.159876E+00  1.146154E+00  1.132752E+00  1.119660E+00  1.106867E+00  1.094364E+00  1.082139E+00
 1.070186E+00  1.058493E+00  1.047053E+00  1.035859E+00  1.024901E+00  1.014173E+00  1.003669E+00  9.933823E-01  9.833064E-01  9.734339E-01
 1.711932E+02  9.831770E+01  4.591762E+01  2.936812E+01  2.194562E+01  1.771714E+01  1.492716E+01  1.291941E+01  1.139473E+01  1.019401E+01
 9.222834E+00  8.420786E+00  7.747129E+00  7.173289E+00  6.678604E+00  6.247749E+00  5.869118E+00  5.533758E+00  5.234653E+00  4.966225E+00
 4.723985E+00  4.504278E+00  4.304100E+00  4.120958E+00  3.952767E+00  3.797767E+00  3.654464E+00  3.521584E+00  3.398028E+00  3.282849E+00
 3.175223E+00  3.074430E+00  2.979840E+00  2.890896E+00  2.807109E+00  2.728042E+00  2.653308E+00  2.582559E+00  2.515486E+00  2.451809E+00
 2.391276E+00  2.333660E+00  2.278756E+00  2.226376E+00  2.176351E+00  2.128524E+00  2.082754E+00  2.038912E+00  1.996877E+00  1.956541E+00
 1.917803E+00  1.880568E+00  1.844753E+00  1.810276E+00  1.777064E+00  1.745049E+00  1.714168E+00  1.684361E+00  1.655572E+00  1.627752E+00
 1.600851E+00  1.574825E+00  1.549632E+00  1.525232E+00  1.501589E+00  1.478668E+00  1.456437E+00  1.434864E+00  1.413921E+00  1.393580E+00
 1.373817E+00  1.354606E+00  1.335926E+00  1.317754E+00  1.300070E+00  1.282854E+00  1.266088E+00  1.249755E+00  1.233838E+00  1.218322E+00
 1.203191E+00  1.188431E+00  1.174030E+00  1.159973E+00  1.146249E+00  1.132846E+00  1.119753E+00  1.106959E+00  1.094455E+00  1.082230E+00
 1.070275E+00  1.058581E+00  1.047140E+00  1.035944E+00  1.024986E+00  1.014256E+00  1.003750E+00  9.934597E-01  9.833791E-01  9.735014E-01
 1.711972E+02  9.832166E+01  4.592096E+01  2.937059E+01  2.194749E+01  1.771864E+01  1.492841E+01  1.292049E+01  1.139569E+01  1.019487E+01
 9.223605E+00  8.421490E+00  7.747776E+00  7.173888E+00  6.679161E+00  6.248270E+00  5.869607E+00  5.534220E+00  5.235090E+00  4.966639E+00
 4.724378E+00  4.504653E+00  4.304459E+00  4.121302E+00  3.953096E+00  3.798083E+00  3.654769E+00  3.521878E+00  3.398312E+00  3.283123E+00
 3.175488E+00  3.074686E+00  2.980088E+00  2.891137E+00  2.807343E+00  2.728270E+00  2.653529E+00  2.582774E+00  2.515695E+00  2.452013E+00
 2.391475E+00  2.333855E+00  2.278946E+00  2.226562E+00  2.176532E+00  2.128701E+00  2.082928E+00  2.039082E+00  1.997044E+00  1.956704E+00
 1.917962E+00  1.880725E+00  1.844906E+00  1.810427E+00  1.777212E+00  1.745195E+00  1.714311E+00  1.684501E+00  1.655710E+00  1.627888E+00
 1.600984E+00  1.574956E+00  1.549761E+00  1.525359E+00  1.501714E+00  1.478791E+00  1.456558E+00  1.434983E+00  1.414038E+00  1.393696E+00
 1.373931E+00  1.354719E+00  1.336037E+00  1.317864E+00  1.300178E+00  1.282961E+00  1.266194E+00  1.249859E+00  1.233941E+00  1.218423E+00
 1.203291E+00  1.188530E+00  1.174128E+00  1.160070E+00  1.146345E+00  1.132940E+00  1.119846E+00  1.107052E+00  1.094546E+00  1.082320E+00
 1.070364E+00  1.058669E+00  1.047227E+00  1.036030E+00  1.025070E+00  1.014339E+00  1.003831E+00  9.935371E-01  9.834517E-01  9.735689E-01
 1.649969E+02  9.534134E+01  4.519126E+01  2.920048E+01  2.190679E+01  1.770920E+01  1.492679E+01  1.292080E+01  1.139643E+01  1.019566E+01
 9.224360E+00  8.422189E+00  7.748422E+00  7.174487E+00  6.679718E+00  6.248791E+00  5.870097E+00  5.534681E+00  5.235526E+00  4.967053E+00
 4.724772E+00  4.505029E+00  4.304818E+00  4.121645E+00  3.953426E+00  3.798400E+00  3.655074E+00  3.522171E+00  3.398595E+00  3.283397E+00
 3.175752E+00  3.074942E+00  2.980336E+00  2.891378E+00  2.807577E+00  2.728497E+00  2.653750E+00  2.582990E+00  2.515905E+00  2.452217E+00
 2.391674E+00  2.334049E+00  2.279136E+00  2.226747E+00  2.176713E+00  2.128879E+00  2.083102E+00  2.039252E+00  1.997210E+00  1.956867E+00
 1.918122E+00  1.880882E+00  1.845060E+00  1.810577E+00  1.777360E+00  1.745340E+00  1.714454E+00  1.684641E+00  1.655848E+00  1.628023E+00
 1.601118E+00  1.575087E+00  1.549890E+00  1.525486E+00  1.501839E+00  1.478915E+00  1.456679E+00  1.435103E+00  1.414156E+00  1.393812E+00
 1.374046E+00  1.354832E+00  1.336149E+00  1.317973E+00  1.300286E+00  1.283067E+00  1.266299E+00  1.249963E+00  1.234044E+00  1.218525E+00
 1.203391E+00  1.188629E+00  1.174225E+00  1.160166E+00  1.146440E+00  1.133035E+00  1.119940E+00  1.107144E+00  1.094637E+00  1.082410E+00
 1.070453E+00  1.058757E+00  1.047314E+00  1.036116E+00  1.025155E+00  1.014422E+00  1.003911E+00  9.936144E-01  9.835243E-01  9.736364E-01
 1.517583E+02  8.915683E+01  4.378193E+01  2.887534E+01  2.182789E+01  1.768992E+01  1.492256E+01  1.292042E+01  1.139698E+01  1.019640E+01
 9.225101E+00  8.422884E+00  7.749066E+00  7.175084E+00  6.680275E+00  6.249312E+00  5.870586E+00  5.535143E+00  5.235963E+00  4.967467E+00
 4.725166E+00  4.505404E+00  4.305176E+00  4.121989E+00  3.953755E+00  3.798716E+00  3.655378E+00  3.522464E+00  3.398878E+00  3.283670E+00
 3.176017E+00  3.075198E+00  2.980584E+00  2.891619E+00  2.807811E+00  2.728724E+00  2.653971E+00  2.583205E+00  2.516114E+00  2.452421E+00
 2.391873E+00  2.334244E+00  2.279326E+00  2.226933E+00  2.176895E+00  2.129056E+00  2.083275E+00  2.039421E+00  1.997376E+00  1.957030E+00
 1.918282E+00  1.881038E+00  1.845214E+00  1.810728E+00  1.777508E+00  1.745486E+00  1.714596E+00  1.684782E+00  1.655986E+00  1.628159E+00
 1.601251E+00  1.575219E+00  1.550019E+00  1.525613E+00  1.501964E+00  1.479038E+00  1.456800E+00  1.435222E+00  1.414274E+00  1.393928E+00
 1.374160E+00  1.354945E+00  1.336260E+00  1.318083E+00  1.300394E+00  1.283174E+00  1.266404E+00  1.250067E+00  1.234147E+00  1.218626E+00
 1.203492E+00  1.188728E+00  1.174323E+00  1.160263E+00  1.146535E+00  1.133129E+00  1.120033E+00  1.107236E+00  1.094728E+00  1.082500E+00
 1.070542E+00  1.058845E+00  1.047401E+00  1.036202E+00  1.025239E+00  1.014505E+00  1.003992E+00  9.936919E-01  9.835969E-01  9.737034E-01
 1.296917E+02  7.931562E+01  4.181631E+01  2.842970E+01  2.171910E+01  1.766288E+01  1.491627E+01  1.291947E+01  1.139739E+01  1.019711E+01
 9.225830E+00  8.423575E+00  7.749709E+00  7.175682E+00  6.680832E+00  6.249833E+00  5.871075E+00  5.535604E+00  5.236399E+00  4.967881E+00
 4.725559E+00  4.505779E+00  4.305535E+00  4.122332E+00  3.954084E+00  3.799032E+00  3.655682E+00  3.522758E+00  3.399161E+00  3.283943E+00
 3.176281E+00  3.075454E+00  2.980832E+00  2.891859E+00  2.808044E+00  2.728951E+00  2.654192E+00  2.583420E+00  2.516324E+00  2.452625E+00
 2.392073E+00  2.334438E+00  2.279515E+00  2.227118E+00  2.177076E+00  2.129233E+00  2.083448E+00  2.039591E+00  1.997543E+00  1.957193E+00
 1.918441E+00  1.881195E+00  1.845367E+00  1.810879E+00  1.777656E+00  1.745631E+00  1.714739E+00  1.684922E+00  1.656124E+00  1.628294E+00
 1.601384E+00  1.575350E+00  1.550148E+00  1.525740E+00  1.502089E+00  1.479161E+00  1.456922E+00  1.435342E+00  1.414391E+00  1.394044E+00
 1.374274E+00  1.355058E+00  1.336371E+00  1.318193E+00  1.300503E+00  1.283281E+00  1.266510E+00  1.250171E+00  1.234249E+00  1.218728E+00
 1.203592E+00  1.188827E+00  1.174421E+00  1.160359E+00  1.146631E+00  1.133223E+00  1.120126E+00  1.107328E+00  1.094819E+00  1.082590E+00
 1.070631E+00  1.058933E+00  1.047488E+00  1.036288E+00  1.025324E+00  1.014588E+00  1.004073E+00  9.937695E-01  9.836696E-01  9.737697E-01
 9.598215E+01  6.516882E+01  3.952100E+01  2.791261E+01  2.159179E+01  1.763094E+01  1.490867E+01  1.291818E+01  1.139770E+01  1.019778E+01
 9.226551E+00  8.424264E+00  7.750351E+00  7.176279E+00  6.681388E+00  6.250353E+00  5.871564E+00  5.536065E+00  5.236835E+00  4.968294E+00