# vtk DataFile Version 2.0
PFLOTRAN output
ASCII
DATASET UNSTRUCTURED_GRID
POINTS         4242 float
 0.000000E+00  0.000000E+00  0.000000E+00
 2.000000E+02  0.000000E+00  0.000000E+00
 4.000000E+02  0.000000E+00  0.000000E+00
 6.000000E+02  0.000000E+00  0.000000E+00
 8.000000E+02  0.000000E+00  0.000000E+00
 1.000000E+03  0.000000E+00  0.000000E+00
 1.200000E+03  0.000000E+00  0.000000E+00
 1.400000E+03  0.000000E+00  0.000000E+00
 1.600000E+03  0.000000E+00  0.000000E+00
 1.800000E+03  0.000000E+00  0.000000E+00
 2.000000E+03  0.000000E+00  0.000000E+00
 2.200000E+03  0.000000E+00  0.000000E+00
 2.400000E+03  0.000000E+00  0.000000E+00
 2.600000E+03  0.000000E+00  0.000000E+00
 2.800000E+03  0.000000E+00  0.000000E+00
 3.000000E+03  0.000000E+00  0.000000E+00
 3.200000E+03  0.000000E+00  0.000000E+00
 3.400000E+03  0.000000E+00  0.000000E+00
 3.600000E+03  0.000000E+00  0.000000E+00
 3.800000E+03  0.000000E+00  0.000000E+00
 4.000000E+03  0.000000E+00  0.000000E+00
 4.200000E+03  0.000000E+00  0.000000E+00
 4.400000E+03  0.000000E+00  0.000000E+00
 4.600000E+03  0.000000E+00  0.000000E+00
 4.800000E+03  0.000000E+00  0.000000E+00
 5.000000E+03  0.000000E+00  0.000000E+00
 5.200000E+03  0.000000E+00  0.000000E+00
 5.400000E+03  0.000000E+00  0.000000E+00
 5.600000E+03  0.000000E+00  0.000000E+00
 5.800000E+03  0.000000E+00  0.000000E+00
 6.000000E+03  0.000000E+00  0.000000E+00
 6.200000E+03  0.000000E+00  0.000000E+00
 6.400000E+03  0.000000E+00  0.000000E+00
 6.600000E+03  0.000000E+00  0.000000E+00
 6.800000E+03  0.000000E+00  0.000000E+00
 7.000000E+03  0.000000E+00  0.000000E+00
 7.200000E+03  0.000000E+00  0.000000E+00
 7.400000E+03  0.000000E+00  0.000000E+00
 7.600000E+03  0.000000E+00  0.000000E+00
 7.800000E+03  0.000000E+00  0.000000E+00
 8.000000E+03  0.000000E+00  0.000000E+00
 8.200000E+03  0.000000E+00  0.000000E+00
 8.400000E+03  0.000000E+00  0.000000E+00
 8.600000E+03  0.000000E+00  0.000000E+00
 8.800000E+03  0.000000E+00  0.000000E+00
 9.000000E+03  0.000000E+00  0.000000E+00
 9.200000E+03  0.000000E+00  0.000000E+00
 9.400000E+03  0.000000E+00  0.000000E+00
 9.600000E+03  0.000000E+00  0.000000E+00
 9.800000E+03  0.000000E+00  0.000000E+00
 1.000000E+04  0.000000E+00  0.000000E+00
 1.020000E+04  0.000000E+00  0.000000E+00
 1.040000E+04  0.000000E+00  0.000000E+00
 1.060000E+04  0.000000E+00  0.000000E+00
 1.080000E+04  0.000000E+00  0.000000E+00
 1.100000E+04  0.000000E+00  0.000000E+00
 1.120000E+04  0.000000E+00  0.000000E+00
 1.140000E+04  0.000000E+00  0.000000E+00
 1.160000E+04  0.000000E+00  0.000000E+00
 1.180000E+04  0.000000E+00  0.000000E+00
 1.200000E+04  0.000000E+00  0.000000E+00
 1.220000E+04  0.000000E+00  0.000000E+00
 1.240000E+04  0.000000E+00  0.000000E+00
 1.260000E+04  0.000000E+00  0.000000E+00
 1.280000E+04  0.000000E+00  0.000000E+00
 1.300000E+04  0.000000E+00  0.000000E+00
 1.320000E+04  0.000000E+00  0.000000E+00
 1.340000E+04  0.000000E+00  0.000000E+00
 1.360000E+04  0.000000E+00  0.000000E+00
 1.380000E+04  0.000000E+00  0.000000E+00
 1.400000E+04  0.000000E+00  0.000000E+00
 1.420000E+04  0.000000E+00  0.000000E+00
 1.440000E+04  0.000000E+00  0.000000E+00
 1.460000E+04  0.000000E+00  0.000000E+00
 1.480000E+04  0.000000E+00  0.000000E+00
 1.500000E+04  0.000000E+00  0.000000E+00
 1.520000E+04  0.000000E+00  0.000000E+00
 1.540000E+04  0.000000E+00  0.000000E+00
 1.560000E+04  0.000000E+00  0.000000E+00
 1.580000E+04  0.000000E+00  0.000000E+00
 1.600000E+04  0.000000E+00  0.000000E+00
 1.620000E+04  0.000000E+00  0.000000E+00
 1.640000E+04  0.000000E+00  0.000000E+00
 1.660000E+04  0.000000E+00  0.000000E+00
 1.680000E+04  0.000000E+00  0.000000E+00
 1.700000E+04  0.000000E+00  0.000000E+00
 1.720000E+04  0.000000E+00  0.000000E+00
 1.740000E+04  0.000000E+00  0.000000E+00
 1.760000E+04  0.000000E+00  0.000000E+00
 1.780000E+04  0.000000E+00  0.000000E+00
 1.800000E+04  0.000000E+00  0.000000E+00
 1.820000E+04  0.000000E+00  0.000000E+00
 1.840000E+04  0.000000E+00  0.000000E+00
 1.860000E+04  0.000000E+00  0.000000E+00
 1.880000E+04  0.000000E+00  0.000000E+00
 1.900000E+04  0.000000E+00  0.000000E+00
 1.920000E+04  0.000000E+00  0.000000E+00
 1.940000E+04  0.000000E+00  0.000000E+00
 1.960000E+04  0.000000E+00  0.000000E+00
 1.980000E+04  0.000000E+00  0.000000E+00
 2.000000E+04  0.000000E+00  0.000000E+00
 0.000000E+00  1.000000E+00  0.000000E+00
 2.000000E+02  1.000000E+00  0.000000E+00
 4.000000E+02  1.000000E+00  0.000000E+00
 6.000000E+02  1.000000E+00  0.000000E+00
 8.000000E+02  1.000000E+00  0.000000E+00
 1.000000E+03  1.000000E+00  0.000000E+00
 1.200000E+03  1.000000E+00  0.000000E+00
 1.400000E+03  1.000000E+00  0.000000E+00
 1.600000E+03  1.000000E+00  0.000000E+00
 1.800000E+03  1.000000E+00  0.000000E+00
 2.000000E+03  1.000000E+00  0.000000E+00
 2.200000E+03  1.000000E+00  0.000000E+00
 2.400000E+03  1.000000E+00  0.000000E+00
 2.600000E+03  1.000000E+00  0.000000E+00
 2.800000E+03  1.000000E+00  0.000000E+00
 3.000000E+03  1.000000E+00  0.000000E+00
 3.200000E+03  1.000000E+00  0.000000E+00
 3.400000E+03  1.000000E+00  0.000000E+00
 3.600000E+03  1.000000E+00  0.000000E+00
 3.800000E+03  1.000000E+00  0.000000E+00
 4.000000E+03  1.000000E+00  0.000000E+00
 4.200000E+03  1.000000E+00  0.000000E+00
 4.400000E+03  1.000000E+00  0.000000E+00
 4.600000E+03  1.000000E+00  0.000000E+00
 4.800000E+03  1.000000E+00  0.000000E+00
 5.000000E+03  1.000000E+00  0.000000E+00
 5.200000E+03  1.000000E+00  0.000000E+00
 5.400000E+03  1.000000E+00  0.000000E+00
 5.600000E+03  1.000000E+00  0.000000E+00
 5.800000E+03  1.000000E+00  0.000000E+00
 6.000000E+03  1.000000E+00  0.000000E+00
 6.200000E+03  1.000000E+00  0.000000E+00
 6.400000E+03  1.000000E+00  0.000000E+00
 6.600000E+03  1.000000E+00  0.000000E+00
 6.800000E+03  1.000000E+00  0.000000E+00
 7.000000E+03  1.000000E+00  0.000000E+00
 7.200000E+03  1.000000E+00  0.000000E+00
 7.400000E+03  1.000000E+00  0.000000E+00
 7.600000E+03  1.000000E+00  0.000000E+00
 7.800000E+03  1.000000E+00  0.000000E+00
 8.000000E+03  1.000000E+00  0.000000E+00
 8.200000E+03  1.000000E+00  0.000000E+00
 8.400000E+03  1.000000E+00  0.000000E+00
 8.600000E+03  1.000000E+00  0.000000E+00
 8.800000E+03  1.000000E+00  0.000000E+00
 9.000000E+03  1.000000E+00  0.000000E+00
 9.200000E+03  1.000000E+00  0.000000E+00
 9.400000E+03  1.000000E+00  0.000000E+00
 9.600000E+03  1.000000E+00  0.000000E+00
 9.800000E+03  1.000000E+00  0.000000E+00
 1.000000E+04  1.000000E+00  0.000000E+00
 1.020000E+04  1.000000E+00  0.000000E+00
 1.040000E+04  1.000000E+00  0.000000E+00
 1.060000E+04  1.000000E+00  0.000000E+00
 1.080000E+04  1.000000E+00  0.000000E+00
 1.100000E+04  1.000000E+00  0.000000E+00
 1.120000E+04  1.000000E+00  0.000000E+00
 1.140000E+04  1.000000E+00  0.000000E+00
 1.160000E+04  1.000000E+00  0.000000E+00
 1.180000E+04  1.000000E+00  0.000000E+00
 1.200000E+04  1.000000E+00  0.000000E+00
 1.220000E+04  1.000000E+00  0.000000E+00
 1.240000E+04  1.000000E+00  0.000000E+00
 1.260000E+04  1.000000E+00  0.000000E+00
 1.280000E+04  1.000000E+00  0.000000E+00
 1.300000E+04  1.000000E+00  0.000000E+00
 1.320000E+04  1.000000E+00  0.000000E+00
 1.340000E+04  1.000000E+00  0.000000E+00
 1.360000E+04  1.000000E+00  0.000000E+00
 1.380000E+04  1.000000E+00  0.000000E+00
 1.400000E+04  1.000000E+00  0.000000E+00
 1.420000E+04  1.000000E+00  0.000000E+00
 1.440000E+04  1.000000E+00  0.000000E+00
 1.460000E+04  1.000000E+00  0.000000E+00
 1.480000E+04  1.000000E+00  0.000000E+00
 1.500000E+04  1.000000E+00  0.000000E+00
 1.520000E+04  1.000000E+00  0.000000E+00
 1.540000E+04  1.000000E+00  0.000000E+00
 1.560000E+04  1.000000E+00  0.000000E+00
 1.580000E+04  1.000000E+00  0.000000E+00
 1.600000E+04  1.000000E+00  0.000000E+00
 1.620000E+04  1.000000E+00  0.000000E+00
 1.640000E+04  1.000000E+00  0.000000E+00
 1.660000E+04  1.000000E+00  0.000000E+00
 1.680000E+04  1.000000E+00  0.000000E+00
 1.700000E+04  1.000000E+00  0.000000E+00
 1.720000E+04  1.000000E+00  0.000000E+00
 1.740000E+04  1.000000E+00  0.000000E+00
 1.760000E+04  1.000000E+00  0.000000E+00
 1.780000E+04  1.000000E+00  0.000000E+00
 1.800000E+04  1.000000E+00  0.000000E+00
 1.820000E+04  1.000000E+00  0.000000E+00
 1.840000E+04  1.000000E+00  0.000000E+00
 1.860000E+04  1.000000E+00  0.000000E+00
 1.880000E+04  1.000000E+00  0.000000E+00
 1.900000E+04  1.000000E+00  0.000000E+00
 1.920000E+04  1.000000E+00  0.000000E+00
 1.940000E+04  1.000000E+00  0.000000E+00
 1.960000E+04  1.000000E+00  0.000000E+00
 1.980000E+04  1.000000E+00  0.000000E+00
 2.000000E+04  1.000000E+00  0.000000E+00
 0.000000E+00  0.000000E+00  1.500000E+01
 2.000000E+02  0.000000E+00  1.500000E+01
 4.000000E+02  0.000000E+00  1.500000E+01
 6.000000E+02  0.000000E+00  1.500000E+01
 8.000000E+02  0.000000E+00  1.500000E+01
 1.000000E+03  0.000000E+00  1.500000E+01
 1.200000E+03  0.000000E+00  1.500000E+01
 1.400000E+03  0.000000E+00  1.500000E+01
 1.600000E+03  0.000000E+00  1.500000E+01
 1.800000E+03  0.000000E+00  1.500000E+01
 2.000000E+03  0.000000E+00  1.500000E+01
 2.200000E+03  0.000000E+00  1.500000E+01
 2.400000E+03  0.000000E+00  1.500000E+01
 2.600000E+03  0.000000E+00  1.500000E+01
 2.800000E+03  0.000000E+00  1.500000E+01
 3.000000E+03  0.000000E+00  1.500000E+01
 3.200000E+03  0.000000E+00  1.500000E+01
 3.400000E+03  0.000000E+00  1.500000E+01
 3.600000E+03  0.000000E+00  1.500000E+01
 3.800000E+03  0.000000E+00  1.500000E+01
 4.000000E+03  0.000000E+00  1.500000E+01
 4.200000E+03  0.000000E+00  1.500000E+01
 4.400000E+03  0.000000E+00  1.500000E+01
 4.600000E+03  0.000000E+00  1.500000E+01
 4.800000E+03  0.000000E+00  1.500000E+01
 5.000000E+03  0.000000E+00  1.500000E+01
 5.200000E+03  0.000000E+00  1.500000E+01
 5.400000E+03  0.000000E+00  1.500000E+01
 5.600000E+03  0.000000E+00  1.500000E+01
 5.800000E+03  0.000000E+00  1.500000E+01
 6.000000E+03  0.000000E+00  1.500000E+01
 6.200000E+03  0.000000E+00  1.500000E+01
 6.400000E+03  0.000000E+00  1.500000E+01
[...]
CELL_DATA     2000
SCALARS Vlx                  float 1
LOOKUP_TABLE default
 3.760524E+01  3.669692E+01  3.212726E+01  2.600696E+01  2.108205E+01  1.748293E+01  1.485724E+01  1.289387E+01  1.138184E+01  1.018515E+01
 9.215557E+00  8.414351E+00  7.741269E+00  7.167881E+00  6.673574E+00  6.243045E+00  5.864700E+00  5.529593E+00  5.230713E+00  4.962487E+00
 4.720429E+00  4.500887E+00  4.300860E+00  4.117856E+00  3.949791E+00  3.794907E+00  3.651712E+00  3.518932E+00  3.395469E+00  3.280376E+00
 3.172830E+00  3.072113E+00  2.977594E+00  2.888717E+00  2.804992E+00  2.725985E+00  2.651306E+00  2.580611E+00  2.513588E+00  2.449958E+00
 2.389471E+00  2.331898E+00  2.277035E+00  2.224694E+00  2.174706E+00  2.126915E+00  2.081180E+00  2.037370E+00  1.995367E+00  1.955061E+00
 1.916351E+00  1.879144E+00  1.843355E+00  1.808904E+00  1.775717E+00  1.743726E+00  1.712868E+00  1.683083E+00  1.654316E+00  1.626516E+00
 1.599635E+00  1.573629E+00  1.548454E+00  1.524073E+00  1.500447E+00  1.477543E+00  1.455328E+00  1.433771E+00  1.412844E+00  1.392518E+00
 1.372770E+00  1.353573E+00  1.334907E+00  1.316748E+00  1.299077E+00  1.281874E+00  1.265120E+00  1.248799E+00  1.232894E+00  1.217389E+00
 1.202270E+00  1.187521E+00  1.173130E+00  1.159084E+00  1.145370E+00  1.131977E+00  1.118893E+00  1.106109E+00  1.093614E+00  1.081397E+00
 1.069451E+00  1.057767E+00  1.046335E+00  1.035149E+00  1.024200E+00  1.013483E+00  1.002993E+00  9.927269E-01  9.826893E-01  9.729171E-01
 4.052651E+01  3.830885E+01  3.266754E+01  2.615937E+01  2.112396E+01  1.749507E+01  1.486134E+01  1.289572E+01  1.138301E+01  1.018606E+01
 9.216346E+00  8.415061E+00  7.741919E+00  7.168482E+00  6.674133E+00  6.243568E+00  5.865191E+00  5.530056E+00  5.231151E+00  4.962903E+00
 4.720824E+00  4.501264E+00  4.301220E+00  4.118201E+00  3.950121E+00  3.795225E+00  3.652018E+00  3.519226E+00  3.395753E+00  3.280651E+00
 3.173096E+00  3.072370E+00  2.977843E+00  2.888959E+00  2.805227E+00  2.726213E+00  2.651528E+00  2.580827E+00  2.513798E+00  2.450163E+00
 2.389670E+00  2.332093E+00  2.277226E+00  2.224881E+00  2.174888E+00  2.127093E+00  2.081354E+00  2.037540E+00  1.995534E+00  1.955224E+00
 1.916511E+00  1.879302E+00  1.843510E+00  1.809056E+00  1.775866E+00  1.743872E+00  1.713011E+00  1.683224E+00  1.654454E+00  1.626652E+00
 1.599769E+00  1.573760E+00  1.548584E+00  1.524200E+00  1.500573E+00  1.477667E+00  1.455450E+00  1.433891E+00  1.412962E+00  1.392635E+00
 1.372884E+00  1.353687E+00  1.335018E+00  1.316858E+00  1.299185E+00  1.281981E+00  1.265226E+00  1.248904E+00  1.232997E+00  1.217491E+00
 1.202370E+00  1.187620E+00  1.173228E+00  1.159181E+00  1.145465E+00  1.132071E+00  1.118987E+00  1.106201E+00  1.093705E+00  1.081488E+00
 1.069541E+00  1.057855E+00  1.046423E+00  1.035235E+00  1.024286E+00  1.013568E+00  1.003076E+00  9.928088E-01  9.827679E-01  9.729696E-01
 4.673567E+01  4.164537E+01  3.373069E+01  2.645139E+01  2.120249E+01  1.751688E+01  1.486803E+01  1.289827E+01  1.138436E+01  1.018703E+01
 9.217150E+00  8.415775E+00  7.742570E+00  7.169083E+00  6.674692E+00  6.244091E+00  5.865682E+00  5.530519E+00  5.231589E+00  4.963318E+00
 4.721219E+00  4.501641E+00  4.301580E+00  4.118545E+00  3.950452E+00  3.795542E+00  3.652324E+00  3.519521E+00  3.396037E+00  3.280925E+00
 3.173361E+00  3.072627E+00  2.978092E+00  2.889200E+00  2.805462E+00  2.726441E+00  2.651750E+00  2.581043E+00  2.514008E+00  2.450368E+00
 2.389870E+00  2.332288E+00  2.277416E+00  2.225067E+00  2.175070E+00  2.127271E+00  2.081528E+00  2.037711E+00  1.995701E+00  1.955388E+00
 1.916672E+00  1.879459E+00  1.843664E+00  1.809207E+00  1.776014E+00  1.744018E+00  1.713155E+00  1.683364E+00  1.654593E+00  1.626788E+00
 1.599903E+00  1.573892E+00  1.548713E+00  1.524328E+00  1.500698E+00  1.477790E+00  1.455571E+00  1.434011E+00  1.413080E+00  1.392751E+00
 1.372999E+00  1.353800E+00  1.335130E+00  1.316968E+00  1.299294E+00  1.282088E+00  1.265332E+00  1.249008E+00  1.233101E+00  1.217593E+00
 1.202471E+00  1.187720E+00  1.173326E+00  1.159277E+00  1.145561E+00  1.132166E+00  1.119080E+00  1.106294E+00  1.093796E+00  1.081578E+00
 1.069630E+00  1.057944E+00  1.046510E+00  1.035322E+00  1.024371E+00  1.013652E+00  1.003159E+00  9.928897E-01  9.828442E-01  9.730264E-01
 5.702287E+01  4.694406E+01  3.527994E+01  2.686129E+01  2.131078E+01  1.754644E+01  1.487677E+01  1.290138E+01  1.138587E+01  1.018803E+01
 9.217964E+00  8.416492E+00  7.743222E+00  7.169684E+00  6.675251E+00  6.244614E+00  5.866173E+00  5.530982E+00  5.232027E+00  4.963733E+00
 4.721614E+00  4.502017E+00  4.301940E+00  4.118890E+00  3.950782E+00  3.795860E+00  3.652629E+00  3.519815E+00  3.396321E+00  3.281199E+00
 3.173627E+00  3.072884E+00  2.978341E+00  2.889442E+00  2.805696E+00  2.726669E+00  2.651972E+00  2.581258E+00  2.514218E+00  2.450573E+00
 2.390070E+00  2.332483E+00  2.277606E+00  2.225253E+00  2.175252E+00  2.127449E+00  2.081702E+00  2.037881E+00  1.995867E+00  1.955551E+00
 1.916832E+00  1.879616E+00  1.843818E+00  1.809358E+00  1.776163E+00  1.744164E+00  1.713298E+00  1.683505E+00  1.654731E+00  1.626924E+00
 1.600037E+00  1.574023E+00  1.548843E+00  1.524455E+00  1.500824E+00  1.477914E+00  1.455693E+00  1.434131E+00  1.413198E+00  1.392868E+00
 1.373114E+00  1.353913E+00  1.335242E+00  1.317078E+00  1.299403E+00  1.282195E+00  1.265438E+00  1.249113E+00  1.233204E+00  1.217695E+00
 1.202571E+00  1.187819E+00  1.173424E+00  1.159374E+00  1.145657E+00  1.132261E+00  1.119174E+00  1.106386E+00  1.093888E+00  1.081669E+00
 1.069720E+00  1.058032E+00  1.046597E+00  1.035408E+00  1.024456E+00  1.013736E+00  1.003242E+00  9.929697E-01  9.829191E-01  9.730864E-01
 7.272368E+01  5.458552E+01  3.724329E+01  2.735590E+01  2.143904E+01  1.758105E+01  1.488684E+01  1.290484E+01  1.138747E+01  1.018906E+01
 9.218785E+00  8.417211E+00  7.743874E+00  7.170286E+00  6.675810E+00  6.245136E+00  5.866664E+00  5.531445E+00  5.232465E+00  4.964148E+00
 4.722009E+00  4.502394E+00  4.302299E+00  4.119234E+00  3.951113E+00  3.796177E+00  3.652934E+00  3.520109E+00  3.396605E+00  3.281474E+00
 3.173892E+00  3.073141E+00  2.978590E+00  2.889683E+00  2.805931E+00  2.726897E+00  2.652193E+00  2.581474E+00  2.514428E+00  2.450777E+00
 2.390270E+00  2.332678E+00  2.277797E+00  2.225439E+00  2.175434E+00  2.127627E+00  2.081876E+00  2.038051E+00  1.996034E+00  1.955715E+00
 1.916992E+00  1.879773E+00  1.843972E+00  1.809509E+00  1.776311E+00  1.744310E+00  1.713441E+00  1.683646E+00  1.654869E+00  1.627060E+00
 1.600170E+00  1.574155E+00  1.548972E+00  1.524582E+00  1.500949E+00  1.478037E+00  1.455815E+00  1.434251E+00  1.413316E+00  1.392984E+00
 1.373229E+00  1.354026E+00  1.335353E+00  1.317188E+00  1.299511E+00  1.282302E+00  1.265543E+00  1.249217E+00  1.233307E+00  1.217797E+00
 1.202672E+00  1.187918E+00  1.173522E+00  1.159471E+00  1.145753E+00  1.132355E+00  1.119267E+00  1.106479E+00  1.093979E+00  1.081759E+00
 1.069809E+00  1.058120E+00  1.046685E+00  1.035494E+00  1.024541E+00  1.013820E+00  1.003324E+00  9.930489E-01  9.829930E-01  9.731489E-01
 9.592479E+01  6.512338E+01  3.948974E+01  2.789083E+01  2.157523E+01  1.761752E+01  1.489738E+01  1.290842E+01  1.138910E+01  1.019010E+01
 9.219609E+00  8.417930E+00  7.744526E+00  7.170887E+00  6.676369E+00  6.245659E+00  5.867155E+00  5.531907E+00  5.232902E+00  4.964563E+00
 4.722404E+00  4.502770E+00  4.302659E+00  4.119578E+00  3.951443E+00  3.796494E+00  3.653239E+00  3.520403E+00  3.396889E+00  3.281748E+00
 3.174157E+00  3.073398E+00  2.978839E+00  2.889925E+00  2.806165E+00  2.727125E+00  2.652415E+00  2.581690E+00  2.514638E+00  2.450982E+00
 2.390469E+00  2.332873E+00  2.277987E+00  2.225624E+00  2.175615E+00  2.127804E+00  2.082050E+00  2.038222E+00  1.996201E+00  1.955878E+00
 1.917152E+00  1.879930E+00  1.844126E+00  1.809660E+00  1.776460E+00  1.744455E+00  1.713584E+00  1.683786E+00  1.655007E+00  1.627196E+00
 1.600304E+00  1.574286E+00  1.549101E+00  1.524710E+00  1.501074E+00  1.478161E+00  1.455936E+00  1.434370E+00  1.413434E+00  1.393100E+00
 1.373343E+00  1.354139E+00  1.335465E+00  1.317298E+00  1.299620E+00  1.282409E+00  1.265649E+00  1.249321E+00  1.233410E+00  1.217898E+00
 1.202772E+00  1.188017E+00  1.173620E+00  1.159568E+00  1.145848E+00  1.132450E+00  1.119361E+00  1.106571E+00  1.094070E+00  1.081849E+00
 1.069898E+00  1.058209E+00  1.046772E+00  1.035580E+00  1.024626E+00  1.013903E+00  1.003405E+00  9.931276E-01  9.830664E-01  9.732131E-01
 1.296411E+02  7.927726E+01  4.179093E+01  2.841232E+01  2.170608E+01  1.765242E+01  1.490748E+01  1.291188E+01  1.139070E+01  1.019113E+01
 9.220430E+00  8.418648E+00  7.745178E+00  7.171488E+00  6.676928E+00  6.246181E+00  5.867645E+00  5.532369E+00  5.233339E+00  4.964978E+00
 4.722798E+00  4.503146E+00  4.303018E+00  4.119922E+00  3.951773E+00  3.796811E+00  3.653545E+00  3.520697E+00  3.397172E+00  3.282022E+00
 3.174422E+00  3.073654E+00  2.979087E+00  2.890166E+00  2.806400E+00  2.727352E+00  2.652636E+00  2.581905E+00  2.514848E+00  2.451187E+00
 2.390669E+00  2.333068E+00  2.278177E+00  2.225810E+00  2.175797E+00  2.127982E+00  2.082223E+00  2.038392E+00  1.996367E+00  1.956041E+00
 1.917312E+00  1.880087E+00  1.844280E+00  1.809811E+00  1.776608E+00  1.744601E+00  1.713727E+00  1.683927E+00  1.655146E+00  1.627332E+00
 1.600437E+00  1.574418E+00  1.549231E+00  1.524837E+00  1.501200E+00  1.478284E+00  1.456058E+00  1.434490E+00  1.413552E+00  1.393217E+00
 1.373458E+00  1.354252E+00  1.335576E+00  1.317408E+00  1.299728E+00  1.282516E+00  1.265755E+00  1.249426E+00  1.233513E+00  1.218000E+00
 1.202873E+00  1.188116E+00  1.173718E+00  1.159665E+00  1.145944E+00  1.132544E+00  1.119454E+00  1.106663E+00  1.094162E+00  1.081940E+00
 1.069987E+00  1.058297E+00  1.046859E+00  1.035666E+00  1.024711E+00  1.013987E+00  1.003486E+00  9.932057E-01  9.831395E-01  9.732787E-01
 1.517220E+02  8.912864E+01  4.376310E+01  2.886265E+01  2.181851E+01  1.768242E+01  1.491627E+01  1.291499E+01  1.139221E+01  1.019214E+01
 9.221244E+00  8.419364E+00  7.745829E+00  7.172088E+00  6.677486E+00  6.246703E+00  5.868135E+00  5.532832E+00  5.233776E+00  4.965393E+00
 4.723193E+00  4.503522E+00  4.303378E+00  4.120266E+00  3.952103E+00  3.797128E+00  3.653850E+00  3.520991E+00  3.397456E+00  3.282296E+00
 3.174687E+00  3.073911E+00  2.979336E+00  2.890407E+00  2.806634E+00  2.727580E+00  2.652858E+00  2.582121E+00  2.515058E+00  2.451391E+00
 2.390869E+00  2.333262E+00  2.278367E+00  2.225996E+00  2.175978E+00  2.128159E+00  2.082397E+00  2.038562E+00  1.996534E+00  1.956204E+00
 1.917472E+00  1.880244E+00  1.844434E+00  1.809962E+00  1.776756E+00  1.744746E+00  1.713870E+00  1.684067E+00  1.655284E+00  1.627468E+00
 1.600571E+00  1.574549E+00  1.549360E+00  1.524964E+00  1.501325E+00  1.478407E+00  1.456179E+00  1.434610E+00  1.413670E+00  1.393333E+00
 1.373573E+00  1.354365E+00  1.335687E+00  1.317518E+00  1.299837E+00  1.282623E+00  1.265860E+00  1.249530E+00  1.233615E+00  1.218101E+00
 1.202973E+00  1.188216E+00  1.173816E+00  1.159761E+00  1.146040E+00  1.132639E+00  1.119548E+00  1.106756E+00  1.094253E+00  1.082030E+00
 1.070077E+00  1.058385E+00  1.046946E+00  1.035752E+00  1.024796E+00  1.014070E+00  1.003568E+00  9.932836E-01  9.832123E-01  9.733452E-01
 1.649767E+02  9.532489E+01  4.517980E+01  2.919276E+01  2.190112E+01  1.770469E+01  1.492301E+01  1.291755E+01  1.139356E+01  1.019310E+01
 9.222046E+00  8.420077E+00  7.746479E+00  7.172688E+00  6.678044E+00  6.247225E+00  5.868625E+00  5.533294E+00  5.234213E+00  4.965807E+00
 4.723587E+00  4.503898E+00  4.303737E+00  4.120610E+00  3.952432E+00  3.797445E+00  3.654154E+00  3.521285E+00  3.397739E+00  3.282570E+00
 3.174952E+00  3.074167E+00  2.979584E+00  2.890648E+00  2.806868E+00  2.727807E+00  2.653079E+00  2.582336E+00  2.515268E+00  2.451596E+00
 2.391068E+00  2.333457E+00  2.278557E+00  2.226182E+00  2.176160E+00  2.128337E+00  2.082571E+00  2.038732E+00  1.996701E+00  1.956368E+00
 1.917632E+00  1.880401E+00  1.844588E+00  1.810113E+00  1.776904E+00  1.744892E+00  1.714013E+00  1.684208E+00  1.655422E+00  1.627603E+00
 1.600704E+00  1.574680E+00  1.549489E+00  1.525091E+00  1.501450E+00  1.478531E+00  1.456301E+00  1.434729E+00  1.413788E+00  1.393449E+00
 1.373687E+00  1.354478E+00  1.335799E+00  1.317628E+00  1.299945E+00  1.282730E+00  1.265966E+00  1.249634E+00  1.233718E+00  1.218203E+00
 1.203073E+00  1.188315E+00  1.173914E+00  1.159858E+00  1.146135E+00  1.132733E+00  1.119641E+00  1.106848E+00  1.094344E+00  1.082120E+00
 1.070166E+00  1.058473E+00  1.047033E+00  1.035838E+00  1.024880E+00  1.014153E+00  1.003648E+00  9.933611E-01  9.832850E-01  9.734123E-01
 1.711941E+02  9.831777E+01  4.591738E+01  2.936801E+01  2.194558E+01  1.771713E+01  1.492715E+01  1.291941E+01  1.139473E+01  1.019401E+01
 9.222833E+00  8.420785E+00  7.747128E+00  7.173288E+00  6.678602E+00  6.247746E+00  5.869115E+00  5.533755E+00  5.234650E+00  4.966222E+00
 4.723981E+00  4.504274E+00  4.304096E+00  4.120954E+00  3.952762E+00  3.797762E+00  3.654459E+00  3.521579E+00  3.398023E+00  3.282843E+00
 3.175217E+00  3.074424E+00  2.979833E+00  2.890889E+00  2.807102E+00  2.728035E+00  2.653300E+00  2.582551E+00  2.515478E+00  2.451800E+00
 2.391267E+00  2.333652E+00  2.278747E+00  2.226367E+00  2.176341E+00  2.128514E+00  2.082744E+00  2.038902E+00  1.996867E+00  1.956531E+00
 1.917792E+00  1.880557E+00  1.844741E+00  1.810264E+00  1.777052E+00  1.745037E+00  1.714156E+00  1.684348E+00  1.655560E+00  1.627739E+00
 1.600838E+00  1.574812E+00  1.549618E+00  1.525219E+00  1.501575E+00  1.478654E+00  1.456422E+00  1.434849E+00  1.413906E+00  1.393565E+00
 1.373802E+00  1.354591E+00  1.335910E+00  1.317738E+00  1.300053E+00  1.282837E+00  1.266071E+00  1.249738E+00  1.233821E+00  1.218305E+00
 1.203173E+00  1.188414E+00  1.174012E+00  1.159955E+00  1.146231E+00  1.132827E+00  1.119734E+00  1.106940E+00  1.094435E+00  1.082210E+00
 1.070255E+00  1.058561E+00  1.047120E+00  1.035924E+00  1.024965E+00  1.014236E+00  1.003729E+00  9.934386E-01  9.833577E-01  9.734798E-01
 1.711981E+02  9.832167E+01  4.592070E+01  2.937049E+01  2.194746E+01  1.771863E+01  1.492841E+01  1.292049E+01  1.139569E+01  1.019487E+01
 9.223605E+00  8.421489E+00  7.747775E+00  7.173887E+00  6.679159E+00  6.248268E+00  5.869605E+00  5.534217E+00  5.235087E+00  4.966636E+00
 4.724375E+00  4.504649E+00  4.304455E+00  4.121297E+00  3.953092E+00  3.798078E+00  3.654764E+00  3.521872E+00  3.398306E+00  3.283117E+00
 3.175481E+00  3.074680E+00  2.980081E+00  2.891130E+00  2.807336E+00  2.728262E+00  2.653521E+00  2.582767E+00  2.515687E+00  2.452005E+00
 2.391467E+00  2.333846E+00  2.278937E+00  2.226553E+00  2.176523E+00  2.128692E+00  2.082918E+00  2.039072E+00  1.997033E+00  1.956694E+00
 1.917952E+00  1.880714E+00  1.844895E+00  1.810415E+00  1.777200E+00  1.745183E+00  1.714299E+00  1.684489E+00  1.655698E+00  1.627875E+00
 1.600971E+00  1.574943E+00  1.549747E+00  1.525346E+00  1.501700E+00  1.478777E+00  1.456543E+00  1.434968E+00  1.414023E+00  1.393681E+00
 1.373916E+00  1.354704E+00  1.336021E+00  1.317848E+00  1.300162E+00  1.282944E+00  1.266177E+00  1.249842E+00  1.233924E+00  1.218406E+00
 1.203274E+00  1.188513E+00  1.174110E+00  1.160051E+00  1.146326E+00  1.132922E+00  1.119827E+00  1.107032E+00  1.094527E+00  1.082300E+00
 1.070344E+00  1.058649E+00  1.047207E+00  1.036010E+00  1.025050E+00  1.014319E+00  1.003810E+00  9.935159E-01  9.834303E-01  9.735474E-01
 1.649964E+02  9.534091E+01  4.519102E+01  2.920041E+01  2.190677E+01  1.770920E+01  1.492679E+01  1.292081E+01  1.139643E+01  1.019566E+01
 9.224360E+00  8.422188E+00  7.748421E+00  7.174485E+00  6.679716E+00  6.248789E+00  5.870094E+00  5.534679E+00  5.235523E+00  4.967050E+00
 4.724769E+00  4.505025E+00  4.304813E+00  4.121641E+00  3.953421E+00  3.798395E+00  3.655068E+00  3.522166E+00  3.398589E+00  3.283391E+00
 3.175746E+00  3.074936E+00  2.980329E+00  2.891371E+00  2.807570E+00  2.728489E+00  2.653742E+00  2.582982E+00  2.515897E+00  2.452209E+00
 2.391666E+00  2.334040E+00  2.279127E+00  2.226738E+00  2.176704E+00  2.128869E+00  2.083092E+00  2.039241E+00  1.997200E+00  1.956857E+00
 1.918111E+00  1.880871E+00  1.845049E+00  1.810566E+00  1.777348E+00  1.745328E+00  1.714441E+00  1.684629E+00  1.655836E+00  1.628010E+00
 1.601105E+00  1.575074E+00  1.549877E+00  1.525473E+00  1.501825E+00  1.478900E+00  1.456665E+00  1.435088E+00  1.414141E+00  1.393797E+00
 1.374030E+00  1.354817E+00  1.336133E+00  1.317957E+00  1.300270E+00  1.283051E+00  1.266282E+00  1.249946E+00  1.234027E+00  1.218507E+00
 1.203374E+00  1.188612E+00  1.174207E+00  1.160148E+00  1.146422E+00  1.133016E+00  1.119921E+00  1.107125E+00  1.094618E+00  1.082390E+00
 1.070433E+00  1.058737E+00  1.047294E+00  1.036096E+00  1.025134E+00  1.014402E+00  1.003890E+00  9.935933E-01  9.835029E-01  9.736148E-01
 1.517550E+02  8.915541E+01  4.378172E+01  2.887531E+01  2.182789E+01  1.768993E+01  1.492256E+01  1.292042E+01  1.139699E+01  1.019641E+01
 9.225101E+00  8.422883E+00  7.749065E+00  7.175083E+00  6.680273E+00  6.249310E+00  5.870584E+00  5.535140E+00  5.235959E+00  4.967464E+00
 4.725162E+00  4.505400E+00  4.305172E+00  4.121984E+00  3.953750E+00  3.798711E+00  3.655373E+00  3.522459E+00  3.398872E+00  3.283664E+00
 3.176010E+00  3.075192E+00  2.980578E+00  2.891612E+00  2.807803E+00  2.728717E+00  2.653963E+00  2.583197E+00  2.516106E+00  2.452413E+00
 2.391865E+00  2.334235E+00  2.279317E+00  2.226924E+00  2.176885E+00  2.129046E+00  2.083265E+00  2.039411E+00  1.997366E+00  1.957020E+00
 1.918271E+00  1.881027E+00  1.845202E+00  1.810717E+00  1.777496E+00  1.745473E+00  1.714584E+00  1.684769E+00  1.655973E+00  1.628146E+00
 1.601238E+00  1.575205E+00  1.550006E+00  1.525600E+00  1.501950E+00  1.479023E+00  1.456786E+00  1.435207E+00  1.414259E+00  1.393913E+00
 1.374145E+00  1.354929E+00  1.336244E+00  1.318067E+00  1.300378E+00  1.283158E+00  1.266388E+00  1.250050E+00  1.234129E+00  1.218609E+00
 1.203474E+00  1.188711E+00  1.174305E+00  1.160245E+00  1.146517E+00  1.133110E+00  1.120014E+00  1.107217E+00  1.094709E+00  1.082480E+00
 1.070522E+00  1.058825E+00  1.047381E+00  1.036182E+00  1.025219E+00  1.014484E+00  1.003971E+00  9.936707E-01  9.835755E-01  9.736818E-01
 1.296832E+02  7.931256E+01  4.181617E+01  2.842972E+01  2.171912E+01  1.766290E+01  1.491628E+01  1.291948E+01  1.139739E+01  1.019711E+01
 9.225830E+00  8.423575E+00  7.749708E+00  7.175680E+00  6.680830E+00  6.249831E+00  5.871073E+00  5.535601E+00  5.236396E+00  4.967877E+00
 4.725556E+00  4.505775E+00  4.305530E+00  4.122327E+00  3.954080E+00  3.799027E+00  3.655677E+00  3.522752E+00  3.399155E+00  3.283937E+00
 3.176275E+00  3.075448E+00  2.980826E+00  2.891853E+00  2.808037E+00  2.728944E+00  2.654184E+00  2.583412E+00  2.516316E+00  2.452617E+00
 2.392064E+00  2.334429E+00  2.279506E+00  2.227109E+00  2.177066E+00  2.129223E+00  2.083438E+00  2.039581E+00  1.997532E+00  1.957182E+00
 1.918431E+00  1.881184E+00  1.845356E+00  1.810867E+00  1.777644E+00  1.745619E+00  1.714727E+00  1.684909E+00  1.656111E+00  1.628281E+00
 1.601371E+00  1.575336E+00  1.550134E+00  1.525727E+00  1.502075E+00  1.479146E+00  1.456907E+00  1.435327E+00  1.414377E+00  1.394029E+00
 1.374259E+00  1.355042E+00  1.336355E+00  1.318177E+00  1.300486E+00  1.283265E+00  1.266493E+00  1.250154E+00  1.234232E+00  1.218710E+00
 1.203574E+00  1.188809E+00  1.174403E+00  1.160341E+00  1.146612E+00  1.133205E+00  1.120107E+00  1.107309E+00  1.094800E+00  1.082570E+00
 1.070611E+00  1.058913E+00  1.047468E+00  1.036267E+00  1.025303E+00  1.014567E+00  1.004052E+00  9.937483E-01  9.836482E-01  9.737481E-01
 9.598513E+01  6.516989E+01  3.952111E+01  2.791268E+01  2.159183E+01  1.763096E+01  1.490868E+01  1.291818E+01  1.139770E+01  1.019778E+01
 9.226552E+00  8.424264E+00  7.750351E+00  7.176277E+00  6.681386E+00  6.250351E+00  5.871562E+00  5.536062E+00  5.236832E+00  4.968291E+00