# vtk DataFile Version 2.0
PFLOTRAN output
ASCII
DATASET UNSTRUCTURED_GRID
POINTS          462 float
 0.000000E+00  0.000000E+00  0.000000E+00
 1.000000E+01  0.000000E+00  0.000000E+00
 2.000000E+01  0.000000E+00  0.000000E+00
 3.000000E+01  0.000000E+00  0.000000E+00
 4.000000E+01  0.000000E+00  0.000000E+00
 5.000000E+01  0.000000E+00  0.000000E+00
 6.000000E+01  0.000000E+00  0.000000E+00
 7.000000E+01  0.000000E+00  0.000000E+00
 8.000000E+01  0.000000E+00  0.000000E+00
 9.000000E+01  0.000000E+00  0.000000E+00
 1.000000E+02  0.000000E+00  0.000000E+00
 0.000000E+00  1.000000E+00  0.000000E+00
 1.000000E+01  1.000000E+00  0.000000E+00
 2.000000E+01  1.000000E+00  0.000000E+00
 3.000000E+01  1.000000E+00  0.000000E+00
 4.000000E+01  1.000000E+00  0.000000E+00
 5.000000E+01  1.000000E+00  0.000000E+00
 6.000000E+01  1.000000E+00  0.000000E+00
 7.000000E+01  1.000000E+00  0.000000E+00
 8.000000E+01  1.000000E+00  0.000000E+00
 9.000000E+01  1.000000E+00  0.000000E+00
 1.000000E+02  1.000000E+00  0.000000E+00
 0.000000E+00  0.000000E+00  5.000000E+00
 1.000000E+01  0.000000E+00  5.000000E+00
 2.000000E+01  0.000000E+00  5.000000E+00
 3.000000E+01  0.000000E+00  5.000000E+00
 4.000000E+01  0.000000E+00  5.000000E+00
 5.000000E+01  0.000000E+00  5.000000E+00
 6.000000E+01  0.000000E+00  5.000000E+00
 7.000000E+01  0.000000E+00  5.000000E+00
 8.000000E+01  0.000000E+00  5.000000E+00
 9.000000E+01  0.000000E+00  5.000000E+00
 1.000000E+02  0.000000E+00  5.000000E+00
 0.000000E+00  1.000000E+00  5.000000E+00
 1.000000E+01  1.000000E+00  5.000000E+00
 2.000000E+01  1.000000E+00  5.000000E+00
 3.000000E+01  1.000000E+00  5.000000E+00
 4.000000E+01  1.000000E+00  5.000000E+00
 5.000000E+01  1.000000E+00  5.000000E+00
 6.000000E+01  1.000000E+00  5.000000E+00
 7.000000E+01  1.000000E+00  5.000000E+00
 8.000000E+01  1.000000E+00  5.000000E+00
 9.000000E+01  1.000000E+00  5.000000E+00
 1.000000E+02  1.000000E+00  5.000000E+00
 0.000000E+00  0.000000E+00  1.000000E+01
 1.000000E+01  0.000000E+00  1.000000E+01
 2.000000E+01  0.000000E+00  1.000000E+01
 3.000000E+01  0.000000E+00  1.000000E+01
 4.000000E+01  0.000000E+00  1.000000E+01
 5.000000E+01  0.000000E+00  1.000000E+01
 6.000000E+01  0.000000E+00  1.000000E+01
 7.000000E+01  0.000000E+00  1.000000E+01
 8.000000E+01  0.000000E+00  1.000000E+01
 9.000000E+01  0.000000E+00  1.000000E+01
 1.000000E+02  0.000000E+00  1.000000E+01
 0.000000E+00  1.000000E+00  1.000000E+01
 1.000000E+01  1.000000E+00  1.000000E+01
 2.000000E+01  1.000000E+00  1.000000E+01
 3.000000E+01  1.000000E+00  1.000000E+01
 4.000000E+01  1.000000E+00  1.000000E+01
 5.000000E+01  1.000000E+00  1.000000E+01
 6.000000E+01  1.000000E+00  1.000000E+01
 7.000000E+01  1.000000E+00  1.000000E+01
 8.000000E+01  1.000000E+00  1.000000E+01
 9.000000E+01  1.000000E+00  1.000000E+01
 1.000000E+02  1.000000E+00  1.000000E+01
 0.000000E+00  0.000000E+00  1.500000E+01
 1.000000E+01  0.000000E+00  1.500000E+01
 2.000000E+01  0.000000E+00  1.500000E+01
 3.000000E+01  0.000000E+00  1.500000E+01
 4.000000E+01  0.000000E+00  1.500000E+01
 5.000000E+01  0.000000E+00  1.500000E+01
 6.000000E+01  0.000000E+00  1.500000E+01
 7.000000E+01  0.000000E+00  1.500000E+01
 8.000000E+01  0.000000E+00  1.500000E+01
 9.000000E+01  0.000000E+00  1.500000E+01
 1.000000E+02  0.000000E+00  1.500000E+01
 0.000000E+00  1.000000E+00  1.500000E+01
 1.000000E+01  1.000000E+00  1.500000E+01
 2.000000E+01  1.000000E+00  1.500000E+01
 3.000000E+01  1.000000E+00  1.500000E+01
 4.000000E+01  1.000000E+00  1.500000E+01
 5.000000E+01  1.000000E+00  1.500000E+01
 6.000000E+01  1.000000E+00  1.500000E+01
 7.000000E+01  1.000000E+00  1.500000E+01
 8.000000E+01  1.000000E+00  1.500000E+01
 9.000000E+01  1.000000E+00  1.500000E+01
 1.000000E+02  1.000000E+00  1.500000E+01
 0.000000E+00  0.000000E+00  2.000000E+01
 1.000000E+01  0.000000E+00  2.000000E+01
 2.000000E+01  0.000000E+00  2.000000E+01
 3.000000E+01  0.000000E+00  2.000000E+01
 4.000000E+01  0.000000E+00  2.000000E+01
 5.000000E+01  0.000000E+00  2.000000E+01
 6.000000E+01  0.000000E+00  2.000000E+01
 7.000000E+01  0.000000E+00  2.000000E+01
 8.000000E+01  0.000000E+00  2.000000E+01
 9.000000E+01  0.000000E+00  2.000000E+01
 1.000000E+02  0.000000E+00  2.000000E+01
 0.000000E+00  1.000000E+00  2.000000E+01
 1.000000E+01  1.000000E+00  2.000000E+01
 2.000000E+01  1.000000E+00  2.000000E+01
 3.000000E+01  1.000000E+00  2.000000E+01
 4.000000E+01  1.000000E+00  2.000000E+01
 5.000000E+01  1.000000E+00  2.000000E+01
 6.000000E+01  1.000000E+00  2.000000E+01
 7.000000E+01  1.000000E+00  2.000000E+01
 8.000000E+01  1.000000E+00  2.000000E+01
 9.000000E+01  1.000000E+00  2.000000E+01
 1.000000E+02  1.000000E+00  2.000000E+01
 0.000000E+00  0.000000E+00  2.500000E+01
 1.000000E+01  0.000000E+00  2.500000E+01
 2.000000E+01  0.000000E+00  2.500000E+01
 3.000000E+01  0.000000E+00  2.500000E+01
 4.000000E+01  0.000000E+00  2.500000E+01
 5.000000E+01  0.000000E+00  2.500000E+01
 6.000000E+01  0.000000E+00  2.500000E+01
 7.000000E+01  0.000000E+00  2.500000E+01
 8.000000E+01  0.000000E+00  2.500000E+01
 9.000000E+01  0.000000E+00  2.500000E+01
 1.000000E+02  0.000000E+00  2.500000E+01
 0.000000E+00  1.000000E+00  2.500000E+01
 1.000000E+01  1.000000E+00  2.500000E+01
 2.000000E+01  1.000000E+00  2.500000E+01
 3.000000E+01  1.000000E+00  2.500000E+01
 4.000000E+01  1.000000E+00  2.500000E+01
 5.000000E+01  1.000000E+00  2.500000E+01
 6.000000E+01  1.000000E+00  2.500000E+01
 7.000000E+01  1.000000E+00  2.500000E+01
 8.000000E+01  1.000000E+00  2.500000E+01
 9.000000E+01  1.000000E+00  2.500000E+01
 1.000000E+02  1.000000E+00  2.500000E+01
 0.000000E+00  0.000000E+00  3.000000E+01
 1.000000E+01  0.000000E+00  3.000000E+01
 2.000000E+01  0.000000E+00  3.000000E+01
 3.000000E+01  0.000000E+00  3.000000E+01
 4.000000E+01  0.000000E+00  3.000000E+01
 5.000000E+01  0.000000E+00  3.000000E+01
 6.000000E+01  0.000000E+00  3.000000E+01
 7.000000E+01  0.000000E+00  3.000000E+01
 8.000000E+01  0.000000E+00  3.000000E+01
 9.000000E+01  0.000000E+00  3.000000E+01
 1.000000E+02  0.000000E+00  3.000000E+01
 0.000000E+00  1.000000E+00  3.000000E+01
 1.000000E+01  1.000000E+00  3.000000E+01
 2.000000E+01  1.000000E+00  3.000000E+01
 3.000000E+01  1.000000E+00  3.000000E+01
 4.000000E+01  1.000000E+00  3.000000E+01
 5.000000E+01  1.000000E+00  3.000000E+01
 6.000000E+01  1.000000E+00  3.000000E+01
 7.000000E+01  1.000000E+00  3.000000E+01
 8.000000E+01  1.000000E+00  3.000000E+01
 9.000000E+01  1.000000E+00  3.000000E+01
 1.000000E+02  1.000000E+00  3.000000E+01
 0.000000E+00  0.000000E+00  3.500000E+01
 1.000000E+01  0.000000E+00  3.500000E+01
 2.000000E+01  0.000000E+00  3.500000E+01
 3.000000E+01  0.000000E+00  3.500000E+01
 4.000000E+01  0.000000E+00  3.500000E+01
 5.000000E+01  0.000000E+00  3.500000E+01
 6.000000E+01  0.000000E+00  3.500000E+01
 7.000000E+01  0.000000E+00  3.500000E+01
 8.000000E+01  0.000000E+00  3.500000E+01
 9.000000E+01  0.000000E+00  3.500000E+01
 1.000000E+02  0.000000E+00  3.500000E+01
 0.000000E+00  1.000000E+00  3.500000E+01
 1.000000E+01  1.000000E+00  3.500000E+01
 2.000000E+01  1.000000E+00  3.500000E+01
 3.000000E+01  1.000000E+00  3.500000E+01
 4.000000E+01  1.000000E+00  3.500000E+01
 5.000000E+01  1.000000E+00  3.500000E+01
 6.000000E+01  1.000000E+00  3.500000E+01
 7.000000E+01  1.000000E+00  3.500000E+01
 8.000000E+01  1.000000E+00  3.500000E+01
 9.000000E+01  1.000000E+00  3.500000E+01
 1.000000E+02  1.000000E+00  3.500000E+01
 0.000000E+00  0.000000E+00  4.000000E+01
 1.000000E+01  0.000000E+00  4.000000E+01
 2.000000E+01  0.000000E+00  4.000000E+01
 3.000000E+01  0.000000E+00  4.000000E+01
 4.000000E+01  0.000000E+00  4.000000E+01
 5.000000E+01  0.000000E+00  4.000000E+01
 6.000000E+01  0.000000E+00  4.000000E+01
 7.000000E+01  0.000000E+00  4.000000E+01
 8.000000E+01  0.000000E+00  4.000000E+01
 9.000000E+01  0.000000E+00  4.000000E+01
 1.000000E+02  0.000000E+00  4.000000E+01
 0.000000E+00  1.000000E+00  4.000000E+01
 1.000000E+01  1.000000E+00  4.000000E+01
 2.000000E+01  1.000000E+00  4.000000E+01
 3.000000E+01  1.000000E+00  4.000000E+01
 4.000000E+01  1.000000E+00  4.000000E+01
 5.000000E+01  1.000000E+00  4.000000E+01
 6.000000E+01  1.000000E+00  4.000000E+01
 7.000000E+01  1.000000E+00  4.000000E+01
 8.000000E+01  1.000000E+00  4.000000E+01
 9.000000E+01  1.000000E+00  4.000000E+01
 1.000000E+02  1.000000E+00  4.000000E+01
 0.000000E+00  0.000000E+00  4.500000E+01
 1.000000E+01  0.000000E+00  4.500000E+01
 2.000000E+01  0.000000E+00  4.500000E+01
 3.000000E+01  0.000000E+00  4.500000E+01
 4.000000E+01  0.000000E+00  4.500000E+01
 5.000000E+01  0.000000E+00  4.500000E+01
 6.000000E+01  0.000000E+00  4.500000E+01
 7.000000E+01  0.000000E+00  4.500000E+01
 8.000000E+01  0.000000E+00  4.500000E+01
 9.000000E+01  0.000000E+00  4.500000E+01
 1.000000E+02  0.000000E+00  4.500000E+01
 0.000000E+00  1.000000E+00  4.500000E+01
 1.000000E+01  1.000000E+00  4.500000E+01
 2.000000E+01  1.000000E+00  4.500000E+01
 3.000000E+01  1.000000E+00  4.500000E+01
 4.000000E+01  1.000000E+00  4.500000E+01
 5.000000E+01  1.000000E+00  4.500000E+01
 6.000000E+01  1.000000E+00  4.500000E+01
 7.000000E+01  1.000000E+00  4.500000E+01
 8.000000E+01  1.000000E+00  4.500000E+01
 9.000000E+01  1.000000E+00  4.500000E+01
 1.000000E+02  1.000000E+00  4.500000E+01
 0.000000E+00  0.000000E+00  5.000000E+01
 1.000000E+01  0.000000E+00  5.000000E+01
 2.000000E+01  0.000000E+00  5.000000E+01
 3.000000E+01  0.000000E+00  5.000000E+01
 4.000000E+01  0.000000E+00  5.000000E+01
 5.000000E+01  0.000000E+00  5.000000E+01
 6.000000E+01  0.000000E+00  5.000000E+01
 7.000000E+01  0.000000E+00  5.000000E+01
 8.000000E+01  0.000000E+00  5.000000E+01
 9.000000E+01  0.000000E+00  5.000000E+01
 1.000000E+02  0.000000E+00  5.000000E+01
 0.000000E+00  1.000000E+00  5.000000E+01
 1.000000E+01  1.000000E+00  5.000000E+01
 2.000000E+01  1.000000E+00  5.000000E+01
 3.000000E+01  1.000000E+00  5.000000E+01
[...]
CELL_DATA      200
SCALARS Porosity             float 1
LOOKUP_TABLE default
 4.377027E-01  4.377089E-01  4.377099E-01  4.377100E-01  4.377100E-01  4.377099E-01  4.377099E-01  4.377099E-01  4.377099E-01  4.377098E-01
 4.376437E-01  4.376994E-01  4.377086E-01  4.377098E-01  4.377099E-01  4.377099E-01  4.377099E-01  4.377099E-01  4.377099E-01  4.377098E-01
 4.373951E-01  4.376516E-01  4.377017E-01  4.377090E-01  4.377099E-01  4.377099E-01  4.377099E-01  4.377099E-01  4.377099E-01  4.377098E-01
 4.367266E-01  4.374908E-01  4.376749E-01  4.377057E-01  4.377095E-01  4.377099E-01  4.377099E-01  4.377099E-01  4.377099E-01  4.377098E-01
 4.356566E-01  4.371037E-01  4.375988E-01  4.376952E-01  4.377084E-01  4.377098E-01  4.377099E-01  4.377099E-01  4.377099E-01  4.377098E-01
 4.357304E-01  4.364760E-01  4.374394E-01  4.376706E-01  4.377056E-01  4.377095E-01  4.377099E-01  4.377099E-01  4.377099E-01  4.377098E-01
 4.400528E-01  4.361072E-01  4.372188E-01  4.376315E-01  4.377009E-01  4.377091E-01  4.377098E-01  4.377099E-01  4.377099E-01  4.377098E-01
 4.400544E-01  4.359988E-01  4.371073E-01  4.376052E-01  4.376972E-01  4.377087E-01  4.377098E-01  4.377099E-01  4.377098E-01  4.377097E-01
 4.400555E-01  4.359540E-01  4.370428E-01  4.375874E-01  4.376944E-01  4.377084E-01  4.377098E-01  4.377099E-01  4.377098E-01  4.377097E-01
 4.400558E-01  4.359360E-01  4.370127E-01  4.375782E-01  4.376929E-01  4.377083E-01  4.377098E-01  4.377098E-01  4.377098E-01  4.377097E-01
 4.400553E-01  4.359358E-01  4.370127E-01  4.375783E-01  4.376929E-01  4.377083E-01  4.377098E-01  4.377099E-01  4.377098E-01  4.377097E-01
 4.400541E-01  4.359536E-01  4.370428E-01  4.375874E-01  4.376945E-01  4.377085E-01  4.377098E-01  4.377099E-01  4.377098E-01  4.377097E-01
 4.400521E-01  4.359982E-01  4.371074E-01  4.376053E-01  4.376972E-01  4.377088E-01  4.377098E-01  4.377099E-01  4.377098E-01  4.377097E-01
 4.400498E-01  4.361066E-01  4.372190E-01  4.376316E-01  4.377009E-01  4.377091E-01  4.377098E-01  4.377099E-01  4.377098E-01  4.377097E-01
 4.357288E-01  4.364762E-01  4.374397E-01  4.376708E-01  4.377057E-01  4.377096E-01  4.377099E-01  4.377099E-01  4.377098E-01  4.377098E-01
 4.356567E-01  4.371042E-01  4.375991E-01  4.376953E-01  4.377085E-01  4.377098E-01  4.377099E-01  4.377099E-01  4.377099E-01  4.377098E-01
 4.367274E-01  4.374914E-01  4.376752E-01  4.377058E-01  4.377096E-01  4.377099E-01  4.377099E-01  4.377099E-01  4.377099E-01  4.377098E-01
 4.373959E-01  4.376521E-01  4.377019E-01  4.377091E-01  4.377099E-01  4.377099E-01  4.377099E-01  4.377099E-01  4.377099E-01  4.377098E-01
 4.376442E-01  4.376996E-01  4.377087E-01  4.377099E-01  4.377099E-01  4.377099E-01  4.377099E-01  4.377099E-01  4.377099E-01  4.377098E-01
 4.377028E-01  4.377090E-01  4.377099E-01  4.377100E-01  4.377099E-01  4.377099E-01  4.377099E-01  4.377099E-01  4.377099E-01  4.377098E-01


SCALARS Permeability         float 1
LOOKUP_TABLE default
 8.829436E-13  8.829751E-13  8.829798E-13  8.829804E-13  8.829804E-13  8.829802E-13  8.829801E-13  8.829800E-13  8.829800E-13  8.829798E-13
 8.826456E-13  8.829268E-13  8.829735E-13  8.829797E-13  8.829802E-13  8.829802E-13  8.829801E-13  8.829800E-13  8.829800E-13  8.829797E-13
 8.813899E-13  8.826856E-13  8.829386E-13  8.829757E-13  8.829799E-13  8.829801E-13  8.829800E-13  8.829799E-13  8.829799E-13  8.829796E-13
 8.780179E-13  8.818730E-13  8.828032E-13  8.829587E-13  8.829782E-13  8.829800E-13  8.829800E-13  8.829799E-13  8.829799E-13  8.829795E-13
 8.726375E-13  8.799188E-13  8.824184E-13  8.829055E-13  8.829726E-13  8.829795E-13  8.829800E-13  8.829799E-13  8.829798E-13  8.829795E-13
 8.730080E-13  8.767562E-13  8.816132E-13  8.827814E-13  8.829585E-13  8.829783E-13  8.829799E-13  8.829799E-13  8.829798E-13  8.829794E-13
 8.948704E-13  8.749010E-13  8.804997E-13  8.825836E-13  8.829344E-13  8.829760E-13  8.829797E-13  8.829798E-13  8.829798E-13  8.829793E-13
 8.948786E-13  8.743563E-13  8.799374E-13  8.824510E-13  8.829157E-13  8.829741E-13  8.829795E-13  8.829798E-13  8.829797E-13  8.829792E-13
 8.948842E-13  8.741313E-13  8.796118E-13  8.823608E-13  8.829018E-13  8.829726E-13  8.829794E-13  8.829798E-13  8.829797E-13  8.829792E-13
 8.948858E-13  8.740406E-13  8.794600E-13  8.823146E-13  8.828943E-13  8.829718E-13  8.829793E-13  8.829798E-13  8.829797E-13  8.829791E-13
 8.948833E-13  8.740398E-13  8.794600E-13  8.823147E-13  8.828943E-13  8.829719E-13  8.829794E-13  8.829798E-13  8.829797E-13  8.829791E-13
 8.948771E-13  8.741293E-13  8.796120E-13  8.823612E-13  8.829020E-13  8.829727E-13  8.829794E-13  8.829798E-13  8.829797E-13  8.829792E-13
 8.948670E-13  8.743535E-13  8.799379E-13  8.824516E-13  8.829160E-13  8.829742E-13  8.829796E-13  8.829798E-13  8.829797E-13  8.829792E-13
 8.948552E-13  8.748983E-13  8.805006E-13  8.825844E-13  8.829348E-13  8.829762E-13  8.829797E-13  8.829798E-13  8.829798E-13  8.829792E-13
 8.730000E-13  8.767573E-13  8.816149E-13  8.827823E-13  8.829589E-13  8.829784E-13  8.829799E-13  8.829798E-13  8.829798E-13  8.829793E-13
 8.726384E-13  8.799217E-13  8.824203E-13  8.829064E-13  8.829729E-13  8.829796E-13  8.829800E-13  8.829799E-13  8.829798E-13  8.829793E-13
 8.780220E-13  8.818759E-13  8.828048E-13  8.829595E-13  8.829785E-13  8.829801E-13  8.829800E-13  8.829798E-13  8.829798E-13  8.829794E-13
 8.813935E-13  8.826878E-13  8.829397E-13  8.829762E-13  8.829800E-13  8.829801E-13  8.829800E-13  8.829798E-13  8.829798E-13  8.829795E-13
 8.826478E-13  8.829281E-13  8.829741E-13  8.829799E-13  8.829803E-13  8.829801E-13  8.829799E-13  8.829799E-13  8.829798E-13  8.829795E-13
 8.829443E-13  8.829755E-13  8.829799E-13  8.829803E-13  8.829802E-13  8.829801E-13  8.829800E-13  8.829799E-13  8.829799E-13  8.829797E-13


SCALARS Liquid_Pressure      float 1
LOOKUP_TABLE default
 8.009772E+06  7.964844E+06  7.898026E+06  7.825684E+06  7.756029E+06  7.692180E+06  7.634775E+06  7.583433E+06  7.537449E+06  7.496095E+06
 7.987078E+06  7.934468E+06  7.861208E+06  7.784929E+06  7.713135E+06  7.648175E+06  7.590202E+06  7.538568E+06  7.492428E+06  7.450982E+06
 7.990731E+06  7.919751E+06  7.832625E+06  7.748345E+06  7.672334E+06  7.605221E+06  7.546156E+06  7.493962E+06  7.447524E+06  7.405900E+06
 8.030100E+06  7.922286E+06  7.811908E+06  7.715422E+06  7.633287E+06  7.563126E+06  7.502534E+06  7.449563E+06  7.402713E+06  7.360845E+06
 8.124099E+06  7.943803E+06  7.798087E+06  7.685296E+06  7.595482E+06  7.521612E+06  7.459193E+06  7.405299E+06  7.357963E+06  7.315807E+06
 8.309056E+06  7.984275E+06  7.789040E+06  7.656675E+06  7.558241E+06  7.480337E+06  7.415960E+06  7.361086E+06  7.313235E+06  7.270776E+06
 8.652103E+06  8.036279E+06  7.780841E+06  7.627846E+06  7.520773E+06  7.438919E+06  7.372647E+06  7.316833E+06  7.268489E+06  7.225740E+06
 8.824063E+06  8.070140E+06  7.767723E+06  7.596881E+06  7.482259E+06  7.396975E+06  7.329071E+06  7.272450E+06  7.223685E+06  7.180690E+06
 8.897745E+06  8.078211E+06  7.745684E+06  7.562129E+06  7.441977E+06  7.354172E+06  7.285072E+06  7.227862E+06  7.178791E+06  7.135616E+06
 8.905458E+06  8.059481E+06  7.712540E+06  7.522459E+06  7.399401E+06  7.310265E+06  7.240534E+06  7.183013E+06  7.133781E+06  7.090511E+06
 8.860240E+06  8.014304E+06  7.667380E+06  7.477308E+06  7.354255E+06  7.265122E+06  7.195393E+06  7.137873E+06  7.088641E+06  7.045372E+06
 8.762094E+06  7.942684E+06  7.610205E+06  7.426676E+06  7.306539E+06  7.218744E+06  7.149650E+06  7.092443E+06  7.043374E+06  7.000198E+06
 8.598004E+06  7.844272E+06  7.541930E+06  7.371128E+06  7.256530E+06  7.171262E+06  7.103368E+06  7.046752E+06  6.997990E+06  6.954994E+06
 8.335691E+06  7.720087E+06  7.464739E+06  7.311795E+06  7.204754E+06  7.122921E+06  7.056663E+06  7.000857E+06  6.952516E+06  6.909765E+06
 7.902405E+06  7.577784E+06  7.382639E+06  7.250331E+06  7.151935E+06  7.074057E+06  7.009696E+06  6.954832E+06  6.906984E+06  6.864522E+06
 7.627212E+06  7.447028E+06  7.301394E+06  7.188662E+06  7.098890E+06  7.025050E+06  6.962650E+06  6.908768E+06  6.861435E+06  6.819275E+06
 7.442970E+06  7.335234E+06  7.224929E+06  7.128502E+06  7.046412E+06  6.976283E+06  6.915714E+06  6.862756E+06  6.815910E+06  6.774035E+06
 7.313347E+06  7.242425E+06  7.155364E+06  7.071142E+06  6.995178E+06  6.928101E+06  6.869060E+06  6.816881E+06  6.770446E+06  6.728814E+06
 7.219428E+06  7.166865E+06  7.093666E+06  7.017445E+06  6.945699E+06  6.880778E+06  6.822833E+06  6.771215E+06  6.725078E+06  6.683620E+06
 7.151843E+06  7.106957E+06  7.040199E+06  6.967917E+06  6.898314E+06  6.834507E+06  6.777132E+06  6.725808E+06  6.679827E+06  6.638460E+06


SCALARS Temperature          float 1
LOOKUP_TABLE default
 1.500985E+02  1.501065E+02  1.501170E+02  1.501280E+02  1.501379E+02  1.501454E+02  1.501480E+02  1.501429E+02  1.501292E+02  1.501088E+02
 1.501019E+02  1.501117E+02  1.501237E+02  1.501356E+02  1.501465E+02  1.501556E+02  1.501610E+02  1.501592E+02  1.501473E+02  1.501254E+02
 1.501016E+02  1.501145E+02  1.501291E+02  1.501426E+02  1.501544E+02  1.501644E+02  1.501713E+02  1.501719E+02  1.501621E+02  1.501403E+02
 1.500967E+02  1.501150E+02  1.501334E+02  1.501492E+02  1.501622E+02  1.501729E+02  1.501809E+02  1.501833E+02  1.501755E+02  1.501544E+02
 1.500843E+02  1.501133E+02  1.501373E+02  1.501558E+02  1.501703E+02  1.501818E+02  1.501906E+02  1.501943E+02  1.501882E+02  1.501679E+02
 1.500590E+02  1.501097E+02  1.501414E+02  1.501632E+02  1.501792E+02  1.501915E+02  1.502008E+02  1.502055E+02  1.502007E+02  1.501811E+02
 1.500095E+02  1.501064E+02  1.501473E+02  1.501721E+02  1.501893E+02  1.502021E+02  1.502118E+02  1.502172E+02  1.502133E+02  1.501941E+02
 1.500031E+02  1.501138E+02  1.501579E+02  1.501834E+02  1.502007E+02  1.502134E+02  1.502232E+02  1.502288E+02  1.502255E+02  1.502065E+02
 1.500010E+02  1.501191E+02  1.501659E+02  1.501922E+02  1.502097E+02  1.502225E+02  1.502323E+02  1.502381E+02  1.502352E+02  1.502163E+02
 1.500009E+02  1.501227E+02  1.501715E+02  1.501986E+02  1.502165E+02  1.502295E+02  1.502393E+02  1.502453E+02  1.502424E+02  1.502234E+02
 1.500009E+02  1.501227E+02  1.501715E+02  1.501986E+02  1.502165E+02  1.502295E+02  1.502394E+02  1.502453E+02  1.502426E+02  1.502236E+02
 1.500023E+02  1.501223E+02  1.501706E+02  1.501979E+02  1.502161E+02  1.502293E+02  1.502393E+02  1.502452E+02  1.502421E+02  1.502226E+02
 1.500060E+02  1.501207E+02  1.501678E+02  1.501953E+02  1.502138E+02  1.502273E+02  1.502375E+02  1.502432E+02  1.502395E+02  1.502192E+02
 1.500147E+02  1.501179E+02  1.501633E+02  1.501909E+02  1.502097E+02  1.502235E+02  1.502338E+02  1.502392E+02  1.502345E+02  1.502131E+02
 1.500773E+02  1.501322E+02  1.501671E+02  1.501912E+02  1.502086E+02  1.502218E+02  1.502316E+02  1.502362E+02  1.502301E+02  1.502069E+02
 1.501159E+02  1.501479E+02  1.501743E+02  1.501945E+02  1.502101E+02  1.502223E+02  1.502314E+02  1.502346E+02  1.502262E+02  1.502007E+02
 1.501414E+02  1.501622E+02  1.501824E+02  1.501993E+02  1.502132E+02  1.502244E+02  1.502324E+02  1.502336E+02  1.502221E+02  1.501936E+02
 1.501596E+02  1.501744E+02  1.501902E+02  1.502046E+02  1.502170E+02  1.502272E+02  1.502337E+02  1.502320E+02  1.502164E+02  1.501844E+02
 1.501730E+02  1.501843E+02  1.501973E+02  1.502098E+02  1.502210E+02  1.502299E+02  1.502339E+02  1.502277E+02  1.502067E+02  1.501714E+02
 1.501828E+02  1.501918E+02  1.502028E+02  1.502140E+02  1.502237E+02  1.502298E+02  1.502282E+02  1.502144E+02  1.501872E+02  1.501504E+02


SCALARS pH                   float 1
LOOKUP_TABLE default
 6.145670E+00  6.145699E+00  6.145731E+00  6.145765E+00  6.145800E+00  6.145833E+00  6.145860E+00  6.145874E+00  6.145868E+00  6.145801E+00
 6.145647E+00  6.145678E+00  6.145709E+00  6.145742E+00  6.145777E+00  6.145812E+00  6.145844E+00  6.145866E+00  6.145870E+00  6.145819E+00
 6.145607E+00  6.145665E+00  6.145699E+00  6.145733E+00  6.145767E+00  6.145803E+00  6.145837E+00  6.145863E+00  6.145873E+00  6.145827E+00
 6.145234E+00  6.145639E+00  6.145692E+00  6.145728E+00  6.145763E+00  6.145798E+00  6.145834E+00  6.145863E+00  6.145877E+00  6.145834E+00
 6.141019E+00  6.145465E+00  6.145680E+00  6.145725E+00  6.145762E+00  6.145798E+00  6.145834E+00  6.145865E+00  6.145882E+00  6.145840E+00
 6.107794E+00  6.143938E+00  6.145631E+00  6.145725E+00  6.145765E+00  6.145802E+00  6.145839E+00  6.145871E+00  6.145891E+00  6.145848E+00
 5.946278E+00  6.135102E+00  6.145358E+00  6.145726E+00  6.145773E+00  6.145811E+00  6.145848E+00  6.145882E+00  6.145903E+00  6.145859E+00
 5.946254E+00  6.132891E+00  6.145244E+00  6.145738E+00  6.145789E+00  6.145826E+00  6.145863E+00  6.145896E+00  6.145918E+00  6.145872E+00
 5.946249E+00  6.131846E+00  6.145177E+00  6.145750E+00  6.145803E+00  6.145839E+00  6.145875E+00  6.145909E+00  6.145931E+00  6.145883E+00
 5.946250E+00  6.131423E+00  6.145147E+00  6.145757E+00  6.145812E+00  6.145848E+00  6.145884E+00  6.145918E+00  6.145940E+00  6.145891E+00
 5.946248E+00  6.131418E+00  6.145143E+00  6.145755E+00  6.145810E+00  6.145847E+00  6.145883E+00  6.145917E+00  6.145940E+00  6.145890E+00
 5.946248E+00  6.131838E+00  6.145172E+00  6.145748E+00  6.145803E+00  6.145841E+00  6.145878E+00  6.145912E+00  6.145934E+00  6.145884E+00
 5.946255E+00  6.132881E+00  6.145239E+00  6.145739E+00  6.145793E+00  6.145832E+00  6.145870E+00  6.145904E+00  6.145925E+00  6.145874E+00
 5.946286E+00  6.135092E+00  6.145356E+00  6.145730E+00  6.145782E+00  6.145822E+00  6.145861E+00  6.145894E+00  6.145914E+00  6.145863E+00
 6.107807E+00  6.143939E+00  6.145638E+00  6.145738E+00  6.145781E+00  6.145821E+00  6.145859E+00  6.145891E+00  6.145908E+00  6.145855E+00
 6.141033E+00  6.145480E+00  6.145700E+00  6.145749E+00  6.145788E+00  6.145827E+00  6.145864E+00  6.145894E+00  6.145907E+00  6.145851E+00
 6.145258E+00  6.145667E+00  6.145725E+00  6.145764E+00  6.145801E+00  6.145838E+00  6.145873E+00  6.145901E+00  6.145908E+00  6.145847E+00
 6.145644E+00  6.145707E+00  6.145745E+00  6.145781E+00  6.145817E+00  6.145854E+00  6.145887E+00  6.145909E+00  6.145909E+00  6.145840E+00
 6.145697E+00  6.145732E+00  6.145767E+00  6.145802E+00  6.145838E+00  6.145872E+00  6.145901E+00  6.145916E+00  6.145905E+00  6.145827E+00
 6.145730E+00  6.145762E+00  6.145796E+00  6.145831E+00  6.145865E+00  6.145895E+00  6.145915E+00  6.145916E+00  6.145889E+00  6.145794E+00


SCALARS Total_H+             float 1
LOOKUP_TABLE default
-3.046776E-03 -3.045560E-03 -3.044090E-03 -3.042417E-03 -3.040586E-03 -3.038654E-03 -3.036708E-03 -3.034862E-03 -3.033224E-03 -3.032049E-03
-3.048009E-03 -3.046876E-03 -3.045489E-03 -3.043873E-03 -3.042062E-03 -3.040092E-03 -3.038043E-03 -3.036048E-03 -3.034255E-03 -3.032944E-03
-3.048755E-03 -3.047566E-03 -3.046189E-03 -3.044616E-03 -3.042840E-03 -3.040879E-03 -3.038791E-03 -3.036709E-03 -3.034813E-03 -3.033434E-03
-3.048030E-03 -3.048119E-03 -3.046651E-03 -3.045077E-03 -3.043327E-03 -3.041384E-03 -3.039285E-03 -3.037150E-03 -3.035175E-03 -3.033750E-03
-3.025859E-03 -3.048040E-03 -3.046995E-03 -3.045362E-03 -3.043619E-03 -3.041693E-03 -3.039594E-03 -3.037427E-03 -3.035394E-03 -3.033940E-03
-2.841622E-03 -3.040441E-03 -3.047084E-03 -3.045498E-03 -3.043741E-03 -3.041828E-03 -3.039736E-03 -3.037551E-03 -3.035477E-03 -3.034010E-03
-2.080250E-03 -2.990734E-03 -3.045762E-03 -3.045443E-03 -3.043688E-03 -3.041791E-03 -3.039713E-03 -3.037523E-03 -3.035426E-03 -3.033961E-03
-2.080140E-03 -2.977945E-03 -3.044814E-03 -3.045172E-03 -3.043463E-03 -3.041604E-03 -3.039551E-03 -3.037369E-03 -3.035262E-03 -3.033812E-03
-2.080054E-03 -2.971786E-03 -3.044152E-03 -3.044927E-03 -3.043246E-03 -3.041412E-03 -3.039379E-03 -3.037203E-03 -3.035092E-03 -3.033658E-03
-2.080028E-03 -2.969249E-03 -3.043784E-03 -3.044740E-03 -3.043066E-03 -3.041242E-03 -3.039217E-03 -3.037045E-03 -3.034936E-03 -3.033520E-03
-2.080072E-03 -2.969284E-03 -3.043809E-03 -3.044757E-03 -3.043077E-03 -3.041249E-03 -3.039222E-03 -3.037048E-03 -3.034936E-03 -3.033520E-03
-2.080171E-03 -2.971793E-03 -3.044073E-03 -3.044795E-03 -3.043081E-03 -3.041228E-03 -3.039183E-03 -3.037004E-03 -3.034900E-03 -3.033499E-03
-2.080324E-03 -2.977904E-03 -3.044611E-03 -3.044875E-03 -3.043108E-03 -3.041215E-03 -3.039145E-03 -3.036958E-03 -3.034869E-03 -3.033488E-03
-2.080486E-03 -2.990595E-03 -3.045394E-03 -3.044949E-03 -3.043119E-03 -3.041180E-03 -3.039080E-03 -3.036888E-03 -3.034822E-03 -3.033468E-03
-2.841462E-03 -3.039937E-03 -3.046405E-03 -3.044712E-03 -3.042889E-03 -3.040938E-03 -3.038829E-03 -3.036651E-03 -3.034632E-03 -3.033330E-03
-3.025155E-03 -3.047120E-03 -3.045946E-03 -3.044229E-03 -3.042435E-03 -3.040481E-03 -3.038374E-03 -3.036230E-03 -3.034287E-03 -3.033067E-03
-3.046830E-03 -3.046771E-03 -3.045206E-03 -3.043570E-03 -3.041784E-03 -3.039824E-03 -3.037728E-03 -3.035644E-03 -3.033812E-03 -3.032706E-03
-3.047090E-03 -3.045789E-03 -3.044341E-03 -3.042725E-03 -3.040927E-03 -3.038960E-03 -3.036895E-03 -3.034908E-03 -3.033232E-03 -3.032273E-03
-3.045895E-03 -3.044680E-03 -3.043246E-03 -3.041605E-03 -3.039784E-03 -3.037827E-03 -3.035839E-03 -3.034018E-03 -3.032558E-03 -3.031775E-03
-3.044251E-03 -3.042985E-03 -3.041494E-03 -3.039815E-03 -3.038000E-03 -3.036130E-03 -3.034347E-03 -3.032823E-03 -3.031668E-03 -3.031101E-03


SCALARS Total_SiO2(aq)       float 1
LOOKUP_TABLE default
 1.040380E-02  1.040169E-02  1.040216E-02  1.040304E-02  1.040390E-02  1.040456E-02  1.040480E-02  1.040440E-02  1.040324E-02  1.040155E-02
 1.043033E-02  1.040640E-02  1.040329E-02  1.040376E-02  1.040464E-02  1.040543E-02  1.040591E-02  1.040579E-02  1.040479E-02  1.040299E-02
 1.054083E-02  1.042789E-02  1.040684E-02  1.040470E-02  1.040535E-02  1.040618E-02  1.040679E-02  1.040687E-02  1.040606E-02  1.040428E-02
 1.084465E-02  1.049948E-02  1.041913E-02  1.040676E-02  1.040616E-02  1.040693E-02  1.040762E-02  1.040785E-02  1.040721E-02  1.040549E-02
 1.143299E-02  1.067443E-02  1.045332E-02  1.041202E-02  1.040735E-02  1.040773E-02  1.040845E-02  1.040879E-02  1.040829E-02  1.040666E-02
 1.225943E-02  1.099365E-02  1.052529E-02  1.042357E-02  1.040935E-02  1.040866E-02  1.040933E-02  1.040975E-02  1.040937E-02  1.040780E-02
 1.309858E-02  1.141008E-02  1.063089E-02  1.044181E-02  1.041233E-02  1.040977E-02  1.041029E-02  1.041075E-02  1.041045E-02  1.040893E-02
 1.309745E-02  1.151926E-02  1.068450E-02  1.045445E-02  1.041494E-02  1.041091E-02  1.041127E-02  1.041175E-02  1.041149E-02  1.041000E-02
 1.309678E-02  1.156812E-02  1.071588E-02  1.046316E-02  1.041694E-02  1.041181E-02  1.041207E-02  1.041255E-02  1.041233E-02  1.041085E-02
 1.309662E-02  1.158799E-02  1.073068E-02  1.046778E-02  1.041818E-02  1.041248E-02  1.041267E-02  1.041316E-02  1.041295E-02  1.041147E-02
 1.309686E-02  1.158806E-02  1.073068E-02  1.046777E-02  1.041817E-02  1.041248E-02  1.041268E-02  1.041317E-02  1.041296E-02  1.041148E-02
 1.309756E-02  1.156855E-02  1.071626E-02  1.046362E-02  1.041746E-02  1.041239E-02  1.041267E-02  1.041316E-02  1.041292E-02  1.041140E-02
 1.309876E-02  1.152005E-02  1.068529E-02  1.045541E-02  1.041604E-02  1.041208E-02  1.041249E-02  1.041298E-02  1.041269E-02  1.041110E-02
 1.310037E-02  1.141122E-02  1.063216E-02  1.044334E-02  1.041404E-02  1.041159E-02  1.041217E-02  1.041264E-02  1.041227E-02  1.041058E-02
 1.226131E-02  1.099540E-02  1.052732E-02  1.042587E-02  1.041183E-02  1.041125E-02  1.041197E-02  1.041239E-02  1.041189E-02  1.041005E-02
 1.143542E-02  1.067707E-02  1.045629E-02  1.041523E-02  1.041072E-02  1.041118E-02  1.041194E-02  1.041225E-02  1.041156E-02  1.040951E-02
 1.084803E-02  1.050318E-02  1.042314E-02  1.041097E-02  1.041049E-02  1.041132E-02  1.041203E-02  1.041217E-02  1.041122E-02  1.040890E-02
 1.054540E-02  1.043276E-02  1.041194E-02  1.040996E-02  1.041069E-02  1.041157E-02  1.041215E-02  1.041205E-02  1.041074E-02  1.040811E-02
 1.043617E-02  1.041247E-02  1.040952E-02  1.041008E-02  1.041102E-02  1.041181E-02  1.041218E-02  1.041169E-02  1.040992E-02  1.040699E-02