# vtk DataFile Version 2.0
PFLOTRAN output
ASCII
DATASET UNSTRUCTURED_GRID
POINTS          462 float
 0.000000E+00  0.000000E+00  0.000000E+00
 1.000000E+01  0.000000E+00  0.000000E+00
 2.000000E+01  0.000000E+00  0.000000E+00
 3.000000E+01  0.000000E+00  0.000000E+00
 4.000000E+01  0.000000E+00  0.000000E+00
 5.000000E+01  0.000000E+00  0.000000E+00
 6.000000E+01  0.000000E+00  0.000000E+00
 7.000000E+01  0.000000E+00  0.000000E+00
 8.000000E+01  0.000000E+00  0.000000E+00
 9.000000E+01  0.000000E+00  0.000000E+00
 1.000000E+02  0.000000E+00  0.000000E+00
 0.000000E+00  1.000000E+00  0.000000E+00
 1.000000E+01  1.000000E+00  0.000000E+00
 2.000000E+01  1.000000E+00  0.000000E+00
 3.000000E+01  1.000000E+00  0.000000E+00
 4.000000E+01  1.000000E+00  0.000000E+00
 5.000000E+01  1.000000E+00  0.000000E+00
 6.000000E+01  1.000000E+00  0.000000E+00
 7.000000E+01  1.000000E+00  0.000000E+00
 8.000000E+01  1.000000E+00  0.000000E+00
 9.000000E+01  1.000000E+00  0.000000E+00
 1.000000E+02  1.000000E+00  0.000000E+00
 0.000000E+00  0.000000E+00  5.000000E+00
 1.000000E+01  0.000000E+00  5.000000E+00
 2.000000E+01  0.000000E+00  5.000000E+00
 3.000000E+01  0.000000E+00  5.000000E+00
 4.000000E+01  0.000000E+00  5.000000E+00
 5.000000E+01  0.000000E+00  5.000000E+00
 6.000000E+01  0.000000E+00  5.000000E+00
 7.000000E+01  0.000000E+00  5.000000E+00
 8.000000E+01  0.000000E+00  5.000000E+00
 9.000000E+01  0.000000E+00  5.000000E+00
 1.000000E+02  0.000000E+00  5.000000E+00
 0.000000E+00  1.000000E+00  5.000000E+00
 1.000000E+01  1.000000E+00  5.000000E+00
 2.000000E+01  1.000000E+00  5.000000E+00
 3.000000E+01  1.000000E+00  5.000000E+00
 4.000000E+01  1.000000E+00  5.000000E+00
 5.000000E+01  1.000000E+00  5.000000E+00
 6.000000E+01  1.000000E+00  5.000000E+00
 7.000000E+01  1.000000E+00  5.000000E+00
 8.000000E+01  1.000000E+00  5.000000E+00
 9.000000E+01  1.000000E+00  5.000000E+00
 1.000000E+02  1.000000E+00  5.000000E+00
 0.000000E+00  0.000000E+00  1.000000E+01
 1.000000E+01  0.000000E+00  1.000000E+01
 2.000000E+01  0.000000E+00  1.000000E+01
 3.000000E+01  0.000000E+00  1.000000E+01
 4.000000E+01  0.000000E+00  1.000000E+01
 5.000000E+01  0.000000E+00  1.000000E+01
 6.000000E+01  0.000000E+00  1.000000E+01
 7.000000E+01  0.000000E+00  1.000000E+01
 8.000000E+01  0.000000E+00  1.000000E+01
 9.000000E+01  0.000000E+00  1.000000E+01
 1.000000E+02  0.000000E+00  1.000000E+01
 0.000000E+00  1.000000E+00  1.000000E+01
 1.000000E+01  1.000000E+00  1.000000E+01
 2.000000E+01  1.000000E+00  1.000000E+01
 3.000000E+01  1.000000E+00  1.000000E+01
 4.000000E+01  1.000000E+00  1.000000E+01
 5.000000E+01  1.000000E+00  1.000000E+01
 6.000000E+01  1.000000E+00  1.000000E+01
 7.000000E+01  1.000000E+00  1.000000E+01
 8.000000E+01  1.000000E+00  1.000000E+01
 9.000000E+01  1.000000E+00  1.000000E+01
 1.000000E+02  1.000000E+00  1.000000E+01
 0.000000E+00  0.000000E+00  1.500000E+01
 1.000000E+01  0.000000E+00  1.500000E+01
 2.000000E+01  0.000000E+00  1.500000E+01
 3.000000E+01  0.000000E+00  1.500000E+01
 4.000000E+01  0.000000E+00  1.500000E+01
 5.000000E+01  0.000000E+00  1.500000E+01
 6.000000E+01  0.000000E+00  1.500000E+01
 7.000000E+01  0.000000E+00  1.500000E+01
 8.000000E+01  0.000000E+00  1.500000E+01
 9.000000E+01  0.000000E+00  1.500000E+01
 1.000000E+02  0.000000E+00  1.500000E+01
 0.000000E+00  1.000000E+00  1.500000E+01
 1.000000E+01  1.000000E+00  1.500000E+01
 2.000000E+01  1.000000E+00  1.500000E+01
 3.000000E+01  1.000000E+00  1.500000E+01
 4.000000E+01  1.000000E+00  1.500000E+01
 5.000000E+01  1.000000E+00  1.500000E+01
 6.000000E+01  1.000000E+00  1.500000E+01
 7.000000E+01  1.000000E+00  1.500000E+01
 8.000000E+01  1.000000E+00  1.500000E+01
 9.000000E+01  1.000000E+00  1.500000E+01
 1.000000E+02  1.000000E+00  1.500000E+01
 0.000000E+00  0.000000E+00  2.000000E+01
 1.000000E+01  0.000000E+00  2.000000E+01
 2.000000E+01  0.000000E+00  2.000000E+01
 3.000000E+01  0.000000E+00  2.000000E+01
 4.000000E+01  0.000000E+00  2.000000E+01
 5.000000E+01  0.000000E+00  2.000000E+01
 6.000000E+01  0.000000E+00  2.000000E+01
 7.000000E+01  0.000000E+00  2.000000E+01
 8.000000E+01  0.000000E+00  2.000000E+01
 9.000000E+01  0.000000E+00  2.000000E+01
 1.000000E+02  0.000000E+00  2.000000E+01
 0.000000E+00  1.000000E+00  2.000000E+01
 1.000000E+01  1.000000E+00  2.000000E+01
 2.000000E+01  1.000000E+00  2.000000E+01
 3.000000E+01  1.000000E+00  2.000000E+01
 4.000000E+01  1.000000E+00  2.000000E+01
 5.000000E+01  1.000000E+00  2.000000E+01
 6.000000E+01  1.000000E+00  2.000000E+01
 7.000000E+01  1.000000E+00  2.000000E+01
 8.000000E+01  1.000000E+00  2.000000E+01
 9.000000E+01  1.000000E+00  2.000000E+01
 1.000000E+02  1.000000E+00  2.000000E+01
 0.000000E+00  0.000000E+00  2.500000E+01
 1.000000E+01  0.000000E+00  2.500000E+01
 2.000000E+01  0.000000E+00  2.500000E+01
 3.000000E+01  0.000000E+00  2.500000E+01
 4.000000E+01  0.000000E+00  2.500000E+01
 5.000000E+01  0.000000E+00  2.500000E+01
 6.000000E+01  0.000000E+00  2.500000E+01
 7.000000E+01  0.000000E+00  2.500000E+01
 8.000000E+01  0.000000E+00  2.500000E+01
 9.000000E+01  0.000000E+00  2.500000E+01
 1.000000E+02  0.000000E+00  2.500000E+01
 0.000000E+00  1.000000E+00  2.500000E+01
 1.000000E+01  1.000000E+00  2.500000E+01
 2.000000E+01  1.000000E+00  2.500000E+01
 3.000000E+01  1.000000E+00  2.500000E+01
 4.000000E+01  1.000000E+00  2.500000E+01
 5.000000E+01  1.000000E+00  2.500000E+01
 6.000000E+01  1.000000E+00  2.500000E+01
 7.000000E+01  1.000000E+00  2.500000E+01
 8.000000E+01  1.000000E+00  2.500000E+01
 9.000000E+01  1.000000E+00  2.500000E+01
 1.000000E+02  1.000000E+00  2.500000E+01
 0.000000E+00  0.000000E+00  3.000000E+01
 1.000000E+01  0.000000E+00  3.000000E+01
 2.000000E+01  0.000000E+00  3.000000E+01
 3.000000E+01  0.000000E+00  3.000000E+01
 4.000000E+01  0.000000E+00  3.000000E+01
 5.000000E+01  0.000000E+00  3.000000E+01
 6.000000E+01  0.000000E+00  3.000000E+01
 7.000000E+01  0.000000E+00  3.000000E+01
 8.000000E+01  0.000000E+00  3.000000E+01
 9.000000E+01  0.000000E+00  3.000000E+01
 1.000000E+02  0.000000E+00  3.000000E+01
 0.000000E+00  1.000000E+00  3.000000E+01
 1.000000E+01  1.000000E+00  3.000000E+01
 2.000000E+01  1.000000E+00  3.000000E+01
 3.000000E+01  1.000000E+00  3.000000E+01
 4.000000E+01  1.000000E+00  3.000000E+01
 5.000000E+01  1.000000E+00  3.000000E+01
 6.000000E+01  1.000000E+00  3.000000E+01
 7.000000E+01  1.000000E+00  3.000000E+01
 8.000000E+01  1.000000E+00  3.000000E+01
 9.000000E+01  1.000000E+00  3.000000E+01
 1.000000E+02  1.000000E+00  3.000000E+01
 0.000000E+00  0.000000E+00  3.500000E+01
 1.000000E+01  0.000000E+00  3.500000E+01
 2.000000E+01  0.000000E+00  3.500000E+01
 3.000000E+01  0.000000E+00  3.500000E+01
 4.000000E+01  0.000000E+00  3.500000E+01
 5.000000E+01  0.000000E+00  3.500000E+01
 6.000000E+01  0.000000E+00  3.500000E+01
 7.000000E+01  0.000000E+00  3.500000E+01
 8.000000E+01  0.000000E+00  3.500000E+01
 9.000000E+01  0.000000E+00  3.500000E+01
 1.000000E+02  0.000000E+00  3.500000E+01
 0.000000E+00  1.000000E+00  3.500000E+01
 1.000000E+01  1.000000E+00  3.500000E+01
 2.000000E+01  1.000000E+00  3.500000E+01
 3.000000E+01  1.000000E+00  3.500000E+01
 4.000000E+01  1.000000E+00  3.500000E+01
 5.000000E+01  1.000000E+00  3.500000E+01
 6.000000E+01  1.000000E+00  3.500000E+01
 7.000000E+01  1.000000E+00  3.500000E+01
 8.000000E+01  1.000000E+00  3.500000E+01
 9.000000E+01  1.000000E+00  3.500000E+01
 1.000000E+02  1.000000E+00  3.500000E+01
 0.000000E+00  0.000000E+00  4.000000E+01
 1.000000E+01  0.000000E+00  4.000000E+01
 2.000000E+01  0.000000E+00  4.000000E+01
 3.000000E+01  0.000000E+00  4.000000E+01
 4.000000E+01  0.000000E+00  4.000000E+01
 5.000000E+01  0.000000E+00  4.000000E+01
 6.000000E+01  0.000000E+00  4.000000E+01
 7.000000E+01  0.000000E+00  4.000000E+01
 8.000000E+01  0.000000E+00  4.000000E+01
 9.000000E+01  0.000000E+00  4.000000E+01
 1.000000E+02  0.000000E+00  4.000000E+01
 0.000000E+00  1.000000E+00  4.000000E+01
 1.000000E+01  1.000000E+00  4.000000E+01
 2.000000E+01  1.000000E+00  4.000000E+01
 3.000000E+01  1.000000E+00  4.000000E+01
 4.000000E+01  1.000000E+00  4.000000E+01
 5.000000E+01  1.000000E+00  4.000000E+01
 6.000000E+01  1.000000E+00  4.000000E+01
 7.000000E+01  1.000000E+00  4.000000E+01
 8.000000E+01  1.000000E+00  4.000000E+01
 9.000000E+01  1.000000E+00  4.000000E+01
 1.000000E+02  1.000000E+00  4.000000E+01
 0.000000E+00  0.000000E+00  4.500000E+01
 1.000000E+01  0.000000E+00  4.500000E+01
 2.000000E+01  0.000000E+00  4.500000E+01
 3.000000E+01  0.000000E+00  4.500000E+01
 4.000000E+01  0.000000E+00  4.500000E+01
 5.000000E+01  0.000000E+00  4.500000E+01
 6.000000E+01  0.000000E+00  4.500000E+01
 7.000000E+01  0.000000E+00  4.500000E+01
 8.000000E+01  0.000000E+00  4.500000E+01
 9.000000E+01  0.000000E+00  4.500000E+01
 1.000000E+02  0.000000E+00  4.500000E+01
 0.000000E+00  1.000000E+00  4.500000E+01
 1.000000E+01  1.000000E+00  4.500000E+01
 2.000000E+01  1.000000E+00  4.500000E+01
 3.000000E+01  1.000000E+00  4.500000E+01
 4.000000E+01  1.000000E+00  4.500000E+01
 5.000000E+01  1.000000E+00  4.500000E+01
 6.000000E+01  1.000000E+00  4.500000E+01
 7.000000E+01  1.000000E+00  4.500000E+01
 8.000000E+01  1.000000E+00  4.500000E+01
 9.000000E+01  1.000000E+00  4.500000E+01
 1.000000E+02  1.000000E+00  4.500000E+01
 0.000000E+00  0.000000E+00  5.000000E+01
 1.000000E+01  0.000000E+00  5.000000E+01
 2.000000E+01  0.000000E+00  5.000000E+01
 3.000000E+01  0.000000E+00  5.000000E+01
 4.000000E+01  0.000000E+00  5.000000E+01
 5.000000E+01  0.000000E+00  5.000000E+01
 6.000000E+01  0.000000E+00  5.000000E+01
 7.000000E+01  0.000000E+00  5.000000E+01
 8.000000E+01  0.000000E+00  5.000000E+01
 9.000000E+01  0.000000E+00  5.000000E+01
 1.000000E+02  0.000000E+00  5.000000E+01
 0.000000E+00  1.000000E+00  5.000000E+01
 1.000000E+01  1.000000E+00  5.000000E+01
 2.000000E+01  1.000000E+00  5.000000E+01
 3.000000E+01  1.000000E+00  5.000000E+01
[...]
CELL_DATA      200
SCALARS Porosity             float 1
LOOKUP_TABLE default
 4.377026E-01  4.377089E-01  4.377099E-01  4.377100E-01  4.377100E-01  4.377099E-01  4.377099E-01  4.377099E-01  4.377099E-01  4.377098E-01
 4.376425E-01  4.376992E-01  4.377086E-01  4.377098E-01  4.377099E-01  4.377099E-01  4.377099E-01  4.377099E-01  4.377099E-01  4.377098E-01
 4.373895E-01  4.376506E-01  4.377015E-01  4.377090E-01  4.377099E-01  4.377099E-01  4.377099E-01  4.377099E-01  4.377099E-01  4.377098E-01
 4.367089E-01  4.374868E-01  4.376743E-01  4.377056E-01  4.377095E-01  4.377099E-01  4.377099E-01  4.377099E-01  4.377099E-01  4.377098E-01
 4.356206E-01  4.370927E-01  4.375968E-01  4.376949E-01  4.377084E-01  4.377098E-01  4.377099E-01  4.377099E-01  4.377099E-01  4.377098E-01
 4.356997E-01  4.364541E-01  4.374345E-01  4.376699E-01  4.377056E-01  4.377095E-01  4.377099E-01  4.377099E-01  4.377099E-01  4.377098E-01
 4.400872E-01  4.360800E-01  4.372100E-01  4.376300E-01  4.377007E-01  4.377091E-01  4.377098E-01  4.377099E-01  4.377098E-01  4.377098E-01
 4.400889E-01  4.359700E-01  4.370965E-01  4.376033E-01  4.376969E-01  4.377087E-01  4.377098E-01  4.377099E-01  4.377098E-01  4.377097E-01
 4.400900E-01  4.359246E-01  4.370309E-01  4.375852E-01  4.376941E-01  4.377084E-01  4.377098E-01  4.377099E-01  4.377098E-01  4.377097E-01
 4.400903E-01  4.359063E-01  4.370002E-01  4.375758E-01  4.376926E-01  4.377082E-01  4.377098E-01  4.377098E-01  4.377098E-01  4.377097E-01
 4.400898E-01  4.359061E-01  4.370002E-01  4.375759E-01  4.376926E-01  4.377083E-01  4.377098E-01  4.377099E-01  4.377098E-01  4.377097E-01
 4.400886E-01  4.359242E-01  4.370309E-01  4.375852E-01  4.376942E-01  4.377084E-01  4.377098E-01  4.377099E-01  4.377098E-01  4.377097E-01
 4.400865E-01  4.359694E-01  4.370966E-01  4.376034E-01  4.376970E-01  4.377087E-01  4.377098E-01  4.377099E-01  4.377098E-01  4.377097E-01
 4.400842E-01  4.360794E-01  4.372102E-01  4.376302E-01  4.377008E-01  4.377091E-01  4.377098E-01  4.377099E-01  4.377098E-01  4.377097E-01
 4.356981E-01  4.364543E-01  4.374348E-01  4.376701E-01  4.377056E-01  4.377096E-01  4.377099E-01  4.377099E-01  4.377098E-01  4.377097E-01
 4.356208E-01  4.370933E-01  4.375971E-01  4.376951E-01  4.377085E-01  4.377098E-01  4.377099E-01  4.377099E-01  4.377098E-01  4.377098E-01
 4.367097E-01  4.374874E-01  4.376746E-01  4.377058E-01  4.377096E-01  4.377099E-01  4.377099E-01  4.377099E-01  4.377099E-01  4.377098E-01
 4.373902E-01  4.376510E-01  4.377018E-01  4.377091E-01  4.377099E-01  4.377099E-01  4.377099E-01  4.377099E-01  4.377099E-01  4.377098E-01
 4.376430E-01  4.376994E-01  4.377087E-01  4.377099E-01  4.377099E-01  4.377099E-01  4.377099E-01  4.377099E-01  4.377099E-01  4.377098E-01
 4.377027E-01  4.377090E-01  4.377099E-01  4.377100E-01  4.377099E-01  4.377099E-01  4.377099E-01  4.377099E-01  4.377099E-01  4.377098E-01


SCALARS Permeability         float 1
LOOKUP_TABLE default
 8.829429E-13  8.829750E-13  8.829798E-13  8.829804E-13  8.829804E-13  8.829802E-13  8.829801E-13  8.829800E-13  8.829800E-13  8.829797E-13
 8.826395E-13  8.829259E-13  8.829734E-13  8.829796E-13  8.829802E-13  8.829802E-13  8.829801E-13  8.829800E-13  8.829799E-13  8.829797E-13
 8.813611E-13  8.826802E-13  8.829378E-13  8.829756E-13  8.829798E-13  8.829801E-13  8.829800E-13  8.829799E-13  8.829799E-13  8.829796E-13
 8.779289E-13  8.818529E-13  8.828000E-13  8.829584E-13  8.829782E-13  8.829800E-13  8.829800E-13  8.829799E-13  8.829799E-13  8.829795E-13
 8.724569E-13  8.798637E-13  8.824083E-13  8.829042E-13  8.829724E-13  8.829795E-13  8.829800E-13  8.829799E-13  8.829798E-13  8.829794E-13
 8.728541E-13  8.766460E-13  8.815885E-13  8.827778E-13  8.829581E-13  8.829782E-13  8.829799E-13  8.829799E-13  8.829798E-13  8.829793E-13
 8.950459E-13  8.747642E-13  8.804552E-13  8.825764E-13  8.829336E-13  8.829759E-13  8.829797E-13  8.829798E-13  8.829798E-13  8.829793E-13
 8.950542E-13  8.742116E-13  8.798830E-13  8.824415E-13  8.829145E-13  8.829740E-13  8.829795E-13  8.829798E-13  8.829797E-13  8.829792E-13
 8.950600E-13  8.739833E-13  8.795516E-13  8.823496E-13  8.829004E-13  8.829725E-13  8.829794E-13  8.829798E-13  8.829797E-13  8.829791E-13
 8.950615E-13  8.738913E-13  8.793972E-13  8.823026E-13  8.828927E-13  8.829717E-13  8.829793E-13  8.829798E-13  8.829797E-13  8.829791E-13
 8.950590E-13  8.738905E-13  8.793972E-13  8.823027E-13  8.828928E-13  8.829717E-13  8.829794E-13  8.829798E-13  8.829797E-13  8.829791E-13
 8.950527E-13  8.739813E-13  8.795518E-13  8.823500E-13  8.829006E-13  8.829726E-13  8.829794E-13  8.829798E-13  8.829797E-13  8.829791E-13
 8.950424E-13  8.742087E-13  8.798835E-13  8.824420E-13  8.829148E-13  8.829741E-13  8.829796E-13  8.829798E-13  8.829797E-13  8.829791E-13
 8.950304E-13  8.747615E-13  8.804562E-13  8.825772E-13  8.829340E-13  8.829761E-13  8.829797E-13  8.829798E-13  8.829797E-13  8.829792E-13
 8.728460E-13  8.766471E-13  8.815902E-13  8.827787E-13  8.829585E-13  8.829784E-13  8.829799E-13  8.829798E-13  8.829798E-13  8.829792E-13
 8.724578E-13  8.798667E-13  8.824101E-13  8.829051E-13  8.829728E-13  8.829796E-13  8.829800E-13  8.829798E-13  8.829798E-13  8.829793E-13
 8.779331E-13  8.818559E-13  8.828016E-13  8.829591E-13  8.829785E-13  8.829801E-13  8.829800E-13  8.829798E-13  8.829798E-13  8.829794E-13
 8.813648E-13  8.826825E-13  8.829390E-13  8.829761E-13  8.829800E-13  8.829801E-13  8.829800E-13  8.829798E-13  8.829798E-13  8.829794E-13
 8.826417E-13  8.829272E-13  8.829740E-13  8.829799E-13  8.829803E-13  8.829801E-13  8.829799E-13  8.829798E-13  8.829798E-13  8.829795E-13
 8.829436E-13  8.829754E-13  8.829799E-13  8.829803E-13  8.829802E-13  8.829801E-13  8.829799E-13  8.829799E-13  8.829799E-13  8.829796E-13


SCALARS Liquid_Pressure      float 1
LOOKUP_TABLE default
 8.009772E+06  7.964844E+06  7.898026E+06  7.825683E+06  7.756028E+06  7.692179E+06  7.634774E+06  7.583432E+06  7.537448E+06  7.496095E+06
 7.987078E+06  7.934468E+06  7.861208E+06  7.784929E+06  7.713134E+06  7.648174E+06  7.590201E+06  7.538567E+06  7.492427E+06  7.450981E+06
 7.990731E+06  7.919751E+06  7.832625E+06  7.748344E+06  7.672333E+06  7.605220E+06  7.546155E+06  7.493961E+06  7.447523E+06  7.405900E+06
 8.030105E+06  7.922288E+06  7.811907E+06  7.715421E+06  7.633286E+06  7.563124E+06  7.502532E+06  7.449562E+06  7.402712E+06  7.360844E+06
 8.124124E+06  7.943809E+06  7.798087E+06  7.685295E+06  7.595481E+06  7.521611E+06  7.459191E+06  7.405298E+06  7.357962E+06  7.315806E+06
 8.309121E+06  7.984291E+06  7.789041E+06  7.656674E+06  7.558240E+06  7.480336E+06  7.415959E+06  7.361085E+06  7.313234E+06  7.270775E+06
 8.652161E+06  8.036310E+06  7.780844E+06  7.627845E+06  7.520772E+06  7.438917E+06  7.372646E+06  7.316832E+06  7.268488E+06  7.225740E+06
 8.824093E+06  8.070180E+06  7.767728E+06  7.596880E+06  7.482258E+06  7.396974E+06  7.329070E+06  7.272449E+06  7.223684E+06  7.180690E+06
 8.897767E+06  8.078256E+06  7.745690E+06  7.562129E+06  7.441976E+06  7.354171E+06  7.285071E+06  7.227861E+06  7.178790E+06  7.135616E+06
 8.905479E+06  8.059527E+06  7.712547E+06  7.522458E+06  7.399399E+06  7.310264E+06  7.240533E+06  7.183012E+06  7.133780E+06  7.090511E+06
 8.860261E+06  8.014351E+06  7.667387E+06  7.477307E+06  7.354253E+06  7.265121E+06  7.195392E+06  7.137872E+06  7.088641E+06  7.045372E+06
 8.762117E+06  7.942729E+06  7.610211E+06  7.426675E+06  7.306538E+06  7.218743E+06  7.149649E+06  7.092442E+06  7.043373E+06  7.000198E+06
 8.598035E+06  7.844312E+06  7.541935E+06  7.371127E+06  7.256529E+06  7.171261E+06  7.103367E+06  7.046751E+06  6.997989E+06  6.954993E+06
 8.335750E+06  7.720119E+06  7.464742E+06  7.311794E+06  7.204753E+06  7.122920E+06  7.056662E+06  7.000856E+06  6.952515E+06  6.909765E+06
 7.902470E+06  7.577799E+06  7.382640E+06  7.250330E+06  7.151933E+06  7.074056E+06  7.009695E+06  6.954831E+06  6.906983E+06  6.864522E+06
 7.627238E+06  7.447033E+06  7.301394E+06  7.188661E+06  7.098889E+06  7.025049E+06  6.962649E+06  6.908767E+06  6.861434E+06  6.819274E+06
 7.442976E+06  7.335236E+06  7.224929E+06  7.128501E+06  7.046411E+06  6.976282E+06  6.915712E+06  6.862755E+06  6.815909E+06  6.774035E+06
 7.313348E+06  7.242425E+06  7.155364E+06  7.071141E+06  6.995177E+06  6.928099E+06  6.869059E+06  6.816880E+06  6.770445E+06  6.728814E+06
 7.219428E+06  7.166865E+06  7.093665E+06  7.017444E+06  6.945698E+06  6.880777E+06  6.822831E+06  6.771213E+06  6.725077E+06  6.683620E+06
 7.151843E+06  7.106957E+06  7.040199E+06  6.967916E+06  6.898313E+06  6.834506E+06  6.777131E+06  6.725807E+06  6.679827E+06  6.638460E+06


SCALARS Temperature          float 1
LOOKUP_TABLE default
 1.500985E+02  1.501065E+02  1.501170E+02  1.501280E+02  1.501380E+02  1.501457E+02  1.501488E+02  1.501445E+02  1.501315E+02  1.501115E+02
 1.501019E+02  1.501117E+02  1.501237E+02  1.501357E+02  1.501466E+02  1.501557E+02  1.501614E+02  1.501604E+02  1.501494E+02  1.501282E+02
 1.501016E+02  1.501145E+02  1.501291E+02  1.501426E+02  1.501544E+02  1.501644E+02  1.501716E+02  1.501728E+02  1.501640E+02  1.501431E+02
 1.500967E+02  1.501151E+02  1.501334E+02  1.501492E+02  1.501622E+02  1.501730E+02  1.501811E+02  1.501840E+02  1.501771E+02  1.501571E+02
 1.500844E+02  1.501133E+02  1.501373E+02  1.501558E+02  1.501703E+02  1.501819E+02  1.501907E+02  1.501949E+02  1.501897E+02  1.501705E+02
 1.500590E+02  1.501097E+02  1.501414E+02  1.501632E+02  1.501792E+02  1.501915E+02  1.502009E+02  1.502060E+02  1.502021E+02  1.501837E+02
 1.500095E+02  1.501064E+02  1.501473E+02  1.501721E+02  1.501893E+02  1.502021E+02  1.502119E+02  1.502176E+02  1.502146E+02  1.501967E+02
 1.500031E+02  1.501138E+02  1.501579E+02  1.501834E+02  1.502007E+02  1.502134E+02  1.502232E+02  1.502291E+02  1.502267E+02  1.502091E+02
 1.500010E+02  1.501191E+02  1.501659E+02  1.501922E+02  1.502097E+02  1.502225E+02  1.502324E+02  1.502385E+02  1.502363E+02  1.502189E+02
 1.500008E+02  1.501227E+02  1.501715E+02  1.501986E+02  1.502165E+02  1.502295E+02  1.502394E+02  1.502456E+02  1.502436E+02  1.502260E+02
 1.500008E+02  1.501227E+02  1.501715E+02  1.501986E+02  1.502165E+02  1.502295E+02  1.502394E+02  1.502457E+02  1.502437E+02  1.502261E+02
 1.500023E+02  1.501223E+02  1.501706E+02  1.501979E+02  1.502161E+02  1.502293E+02  1.502394E+02  1.502456E+02  1.502433E+02  1.502252E+02
 1.500060E+02  1.501207E+02  1.501678E+02  1.501953E+02  1.502138E+02  1.502273E+02  1.502375E+02  1.502436E+02  1.502407E+02  1.502218E+02
 1.500147E+02  1.501179E+02  1.501633E+02  1.501909E+02  1.502097E+02  1.502235E+02  1.502339E+02  1.502396E+02  1.502359E+02  1.502159E+02
 1.500773E+02  1.501322E+02  1.501671E+02  1.501912E+02  1.502086E+02  1.502218E+02  1.502317E+02  1.502368E+02  1.502316E+02  1.502099E+02
 1.501159E+02  1.501479E+02  1.501743E+02  1.501945E+02  1.502101E+02  1.502224E+02  1.502315E+02  1.502353E+02  1.502279E+02  1.502039E+02
 1.501414E+02  1.501622E+02  1.501824E+02  1.501993E+02  1.502132E+02  1.502244E+02  1.502326E+02  1.502345E+02  1.502242E+02  1.501971E+02
 1.501596E+02  1.501744E+02  1.501902E+02  1.502046E+02  1.502170E+02  1.502273E+02  1.502341E+02  1.502332E+02  1.502189E+02  1.501883E+02
 1.501730E+02  1.501843E+02  1.501973E+02  1.502098E+02  1.502210E+02  1.502301E+02  1.502346E+02  1.502294E+02  1.502098E+02  1.501756E+02
 1.501828E+02  1.501918E+02  1.502028E+02  1.502140E+02  1.502239E+02  1.502303E+02  1.502296E+02  1.502171E+02  1.501911E+02  1.501548E+02


SCALARS pH                   float 1
LOOKUP_TABLE default
 6.145670E+00  6.145699E+00  6.145731E+00  6.145765E+00  6.145800E+00  6.145833E+00  6.145861E+00  6.145878E+00  6.145874E+00  6.145813E+00
 6.145647E+00  6.145678E+00  6.145709E+00  6.145742E+00  6.145777E+00  6.145812E+00  6.145845E+00  6.145868E+00  6.145875E+00  6.145827E+00
 6.145607E+00  6.145665E+00  6.145699E+00  6.145733E+00  6.145767E+00  6.145803E+00  6.145837E+00  6.145865E+00  6.145877E+00  6.145834E+00
 6.145232E+00  6.145639E+00  6.145692E+00  6.145728E+00  6.145763E+00  6.145799E+00  6.145834E+00  6.145864E+00  6.145880E+00  6.145840E+00
 6.140982E+00  6.145464E+00  6.145680E+00  6.145725E+00  6.145762E+00  6.145798E+00  6.145834E+00  6.145866E+00  6.145885E+00  6.145845E+00
 6.107492E+00  6.143925E+00  6.145630E+00  6.145725E+00  6.145765E+00  6.145802E+00  6.145839E+00  6.145872E+00  6.145893E+00  6.145853E+00
 5.944873E+00  6.135030E+00  6.145356E+00  6.145726E+00  6.145773E+00  6.145811E+00  6.145848E+00  6.145883E+00  6.145905E+00  6.145863E+00
 5.944848E+00  6.132804E+00  6.145241E+00  6.145738E+00  6.145789E+00  6.145826E+00  6.145863E+00  6.145897E+00  6.145920E+00  6.145876E+00
 5.944844E+00  6.131750E+00  6.145173E+00  6.145750E+00  6.145803E+00  6.145839E+00  6.145875E+00  6.145910E+00  6.145933E+00  6.145888E+00
 5.944845E+00  6.131324E+00  6.145143E+00  6.145757E+00  6.145812E+00  6.145848E+00  6.145884E+00  6.145919E+00  6.145942E+00  6.145895E+00
 5.944842E+00  6.131319E+00  6.145139E+00  6.145755E+00  6.145810E+00  6.145847E+00  6.145883E+00  6.145918E+00  6.145942E+00  6.145894E+00
 5.944842E+00  6.131742E+00  6.145168E+00  6.145748E+00  6.145803E+00  6.145841E+00  6.145878E+00  6.145913E+00  6.145936E+00  6.145888E+00
 5.944850E+00  6.132794E+00  6.145236E+00  6.145738E+00  6.145793E+00  6.145832E+00  6.145870E+00  6.145904E+00  6.145927E+00  6.145879E+00
 5.944882E+00  6.135021E+00  6.145353E+00  6.145730E+00  6.145782E+00  6.145822E+00  6.145861E+00  6.145895E+00  6.145917E+00  6.145867E+00
 6.107505E+00  6.143927E+00  6.145638E+00  6.145738E+00  6.145781E+00  6.145821E+00  6.145859E+00  6.145892E+00  6.145911E+00  6.145860E+00
 6.140996E+00  6.145478E+00  6.145700E+00  6.145749E+00  6.145789E+00  6.145827E+00  6.145864E+00  6.145895E+00  6.145910E+00  6.145856E+00
 6.145255E+00  6.145667E+00  6.145725E+00  6.145764E+00  6.145801E+00  6.145838E+00  6.145874E+00  6.145902E+00  6.145912E+00  6.145853E+00
 6.145643E+00  6.145707E+00  6.145745E+00  6.145781E+00  6.145817E+00  6.145854E+00  6.145887E+00  6.145911E+00  6.145914E+00  6.145848E+00
 6.145697E+00  6.145732E+00  6.145767E+00  6.145802E+00  6.145838E+00  6.145873E+00  6.145903E+00  6.145919E+00  6.145912E+00  6.145837E+00
 6.145730E+00  6.145762E+00  6.145796E+00  6.145831E+00  6.145865E+00  6.145896E+00  6.145917E+00  6.145921E+00  6.145898E+00  6.145808E+00


SCALARS Total_H+             float 1
LOOKUP_TABLE default
-3.046775E-03 -3.045559E-03 -3.044089E-03 -3.042415E-03 -3.040582E-03 -3.038641E-03 -3.036676E-03 -3.034799E-03 -3.033117E-03 -3.031886E-03
-3.048008E-03 -3.046875E-03 -3.045488E-03 -3.043872E-03 -3.042061E-03 -3.040087E-03 -3.038025E-03 -3.036003E-03 -3.034169E-03 -3.032810E-03
-3.048753E-03 -3.047565E-03 -3.046188E-03 -3.044615E-03 -3.042839E-03 -3.040876E-03 -3.038779E-03 -3.036675E-03 -3.034739E-03 -3.033313E-03
-3.048013E-03 -3.048118E-03 -3.046650E-03 -3.045076E-03 -3.043326E-03 -3.041382E-03 -3.039277E-03 -3.037123E-03 -3.035110E-03 -3.033639E-03
-3.025647E-03 -3.048033E-03 -3.046994E-03 -3.045361E-03 -3.043618E-03 -3.041692E-03 -3.039588E-03 -3.037405E-03 -3.035336E-03 -3.033836E-03
-2.839968E-03 -3.040368E-03 -3.047081E-03 -3.045497E-03 -3.043740E-03 -3.041827E-03 -3.039731E-03 -3.037532E-03 -3.035425E-03 -3.033911E-03
-2.074575E-03 -2.990324E-03 -3.045749E-03 -3.045442E-03 -3.043687E-03 -3.041790E-03 -3.039709E-03 -3.037507E-03 -3.035377E-03 -3.033865E-03
-2.074464E-03 -2.977444E-03 -3.044796E-03 -3.045171E-03 -3.043462E-03 -3.041603E-03 -3.039548E-03 -3.037354E-03 -3.035216E-03 -3.033719E-03
-2.074377E-03 -2.971240E-03 -3.044130E-03 -3.044926E-03 -3.043245E-03 -3.041411E-03 -3.039376E-03 -3.037189E-03 -3.035048E-03 -3.033566E-03
-2.074352E-03 -2.968684E-03 -3.043761E-03 -3.044738E-03 -3.043065E-03 -3.041241E-03 -3.039214E-03 -3.037032E-03 -3.034891E-03 -3.033428E-03
-2.074395E-03 -2.968719E-03 -3.043786E-03 -3.044756E-03 -3.043077E-03 -3.041248E-03 -3.039219E-03 -3.037034E-03 -3.034892E-03 -3.033428E-03
-2.074494E-03 -2.971247E-03 -3.044052E-03 -3.044794E-03 -3.043080E-03 -3.041227E-03 -3.039181E-03 -3.036990E-03 -3.034855E-03 -3.033405E-03
-2.074649E-03 -2.977403E-03 -3.044593E-03 -3.044874E-03 -3.043107E-03 -3.041214E-03 -3.039142E-03 -3.036943E-03 -3.034820E-03 -3.033390E-03
-2.074813E-03 -2.990186E-03 -3.045381E-03 -3.044948E-03 -3.043118E-03 -3.041179E-03 -3.039076E-03 -3.036871E-03 -3.034770E-03 -3.033365E-03
-2.839810E-03 -3.039864E-03 -3.046402E-03 -3.044711E-03 -3.042888E-03 -3.040937E-03 -3.038824E-03 -3.036631E-03 -3.034574E-03 -3.033220E-03
-3.024943E-03 -3.047112E-03 -3.045945E-03 -3.044229E-03 -3.042435E-03 -3.040480E-03 -3.038367E-03 -3.036205E-03 -3.034220E-03 -3.032947E-03
-3.046813E-03 -3.046770E-03 -3.045205E-03 -3.043569E-03 -3.041783E-03 -3.039822E-03 -3.037719E-03 -3.035611E-03 -3.033732E-03 -3.032572E-03
-3.047088E-03 -3.045788E-03 -3.044340E-03 -3.042724E-03 -3.040926E-03 -3.038956E-03 -3.036881E-03 -3.034863E-03 -3.033135E-03 -3.032119E-03
-3.045894E-03 -3.044679E-03 -3.043245E-03 -3.041604E-03 -3.039783E-03 -3.037819E-03 -3.035814E-03 -3.033953E-03 -3.032436E-03 -3.031598E-03
-3.044250E-03 -3.042984E-03 -3.041492E-03 -3.039813E-03 -3.037994E-03 -3.036109E-03 -3.034295E-03 -3.032722E-03 -3.031508E-03 -3.030886E-03


SCALARS Total_SiO2(aq)       float 1
LOOKUP_TABLE default
 1.040380E-02  1.040169E-02  1.040216E-02  1.040305E-02  1.040391E-02  1.040459E-02  1.040487E-02  1.040453E-02  1.040344E-02  1.040178E-02
 1.043034E-02  1.040640E-02  1.040329E-02  1.040376E-02  1.040465E-02  1.040544E-02  1.040595E-02  1.040589E-02  1.040497E-02  1.040323E-02
 1.054090E-02  1.042791E-02  1.040684E-02  1.040471E-02  1.040535E-02  1.040619E-02  1.040682E-02  1.040695E-02  1.040622E-02  1.040452E-02
 1.084487E-02  1.049953E-02  1.041914E-02  1.040676E-02  1.040616E-02  1.040693E-02  1.040763E-02  1.040791E-02  1.040735E-02  1.040573E-02
 1.143350E-02  1.067457E-02  1.045334E-02  1.041202E-02  1.040735E-02  1.040773E-02  1.040846E-02  1.040884E-02  1.040842E-02  1.040689E-02
 1.226034E-02  1.099394E-02  1.052535E-02  1.042358E-02  1.040935E-02  1.040866E-02  1.040934E-02  1.040979E-02  1.040948E-02  1.040803E-02
 1.309961E-02  1.141055E-02  1.063100E-02  1.044183E-02  1.041233E-02  1.040977E-02  1.041030E-02  1.041078E-02  1.041055E-02  1.040915E-02
 1.309848E-02  1.151975E-02  1.068462E-02  1.045447E-02  1.041495E-02  1.041091E-02  1.041128E-02  1.041178E-02  1.041159E-02  1.041022E-02
 1.309781E-02  1.156863E-02  1.071601E-02  1.046318E-02  1.041694E-02  1.041182E-02  1.041207E-02  1.041258E-02  1.041242E-02  1.041107E-02
 1.309765E-02  1.158850E-02  1.073082E-02  1.046781E-02  1.041818E-02  1.041248E-02  1.041268E-02  1.041319E-02  1.041305E-02  1.041169E-02
 1.309790E-02  1.158857E-02  1.073082E-02  1.046780E-02  1.041817E-02  1.041248E-02  1.041268E-02  1.041319E-02  1.041306E-02  1.041170E-02
 1.309860E-02  1.156905E-02  1.071639E-02  1.046364E-02  1.041747E-02  1.041239E-02  1.041267E-02  1.041319E-02  1.041302E-02  1.041162E-02
 1.309980E-02  1.152054E-02  1.068542E-02  1.045543E-02  1.041604E-02  1.041208E-02  1.041250E-02  1.041301E-02  1.041280E-02  1.041133E-02
 1.310140E-02  1.141169E-02  1.063226E-02  1.044335E-02  1.041404E-02  1.041159E-02  1.041217E-02  1.041267E-02  1.041239E-02  1.041082E-02
 1.226222E-02  1.099569E-02  1.052737E-02  1.042588E-02  1.041183E-02  1.041125E-02  1.041198E-02  1.041243E-02  1.041202E-02  1.041030E-02
 1.143593E-02  1.067720E-02  1.045631E-02  1.041524E-02  1.041072E-02  1.041119E-02  1.041196E-02  1.041231E-02  1.041171E-02  1.040978E-02
 1.084825E-02  1.050323E-02  1.042315E-02  1.041097E-02  1.041049E-02  1.041133E-02  1.041205E-02  1.041225E-02  1.041140E-02  1.040920E-02
 1.054547E-02  1.043278E-02  1.041195E-02  1.040996E-02  1.041069E-02  1.041157E-02  1.041218E-02  1.041215E-02  1.041095E-02  1.040844E-02
 1.043618E-02  1.041247E-02  1.040952E-02  1.041008E-02  1.041102E-02  1.041182E-02  1.041224E-02  1.041183E-02  1.041018E-02  1.040735E-02