# vtk DataFile Version 2.0
PFLOTRAN output
ASCII
DATASET UNSTRUCTURED_GRID
POINTS          462 float
 0.000000E+00  0.000000E+00  0.000000E+00
 1.000000E+01  0.000000E+00  0.000000E+00
 2.000000E+01  0.000000E+00  0.000000E+00
 3.000000E+01  0.000000E+00  0.000000E+00
 4.000000E+01  0.000000E+00  0.000000E+00
 5.000000E+01  0.000000E+00  0.000000E+00
 6.000000E+01  0.000000E+00  0.000000E+00
 7.000000E+01  0.000000E+00  0.000000E+00
 8.000000E+01  0.000000E+00  0.000000E+00
 9.000000E+01  0.000000E+00  0.000000E+00
 1.000000E+02  0.000000E+00  0.000000E+00
 0.000000E+00  1.000000E+00  0.000000E+00
 1.000000E+01  1.000000E+00  0.000000E+00
 2.000000E+01  1.000000E+00  0.000000E+00
 3.000000E+01  1.000000E+00  0.000000E+00
 4.000000E+01  1.000000E+00  0.000000E+00
 5.000000E+01  1.000000E+00  0.000000E+00
 6.000000E+01  1.000000E+00  0.000000E+00
 7.000000E+01  1.000000E+00  0.000000E+00
 8.000000E+01  1.000000E+00  0.000000E+00
 9.000000E+01  1.000000E+00  0.000000E+00
 1.000000E+02  1.000000E+00  0.000000E+00
 0.000000E+00  0.000000E+00  5.000000E+00
 1.000000E+01  0.000000E+00  5.000000E+00
 2.000000E+01  0.000000E+00  5.000000E+00
 3.000000E+01  0.000000E+00  5.000000E+00
 4.000000E+01  0.000000E+00  5.000000E+00
 5.000000E+01  0.000000E+00  5.000000E+00
 6.000000E+01  0.000000E+00  5.000000E+00
 7.000000E+01  0.000000E+00  5.000000E+00
 8.000000E+01  0.000000E+00  5.000000E+00
 9.000000E+01  0.000000E+00  5.000000E+00
 1.000000E+02  0.000000E+00  5.000000E+00
 0.000000E+00  1.000000E+00  5.000000E+00
 1.000000E+01  1.000000E+00  5.000000E+00
 2.000000E+01  1.000000E+00  5.000000E+00
 3.000000E+01  1.000000E+00  5.000000E+00
 4.000000E+01  1.000000E+00  5.000000E+00
 5.000000E+01  1.000000E+00  5.000000E+00
 6.000000E+01  1.000000E+00  5.000000E+00
 7.000000E+01  1.000000E+00  5.000000E+00
 8.000000E+01  1.000000E+00  5.000000E+00
 9.000000E+01  1.000000E+00  5.000000E+00
 1.000000E+02  1.000000E+00  5.000000E+00
 0.000000E+00  0.000000E+00  1.000000E+01
 1.000000E+01  0.000000E+00  1.000000E+01
 2.000000E+01  0.000000E+00  1.000000E+01
 3.000000E+01  0.000000E+00  1.000000E+01
 4.000000E+01  0.000000E+00  1.000000E+01
 5.000000E+01  0.000000E+00  1.000000E+01
 6.000000E+01  0.000000E+00  1.000000E+01
 7.000000E+01  0.000000E+00  1.000000E+01
 8.000000E+01  0.000000E+00  1.000000E+01
 9.000000E+01  0.000000E+00  1.000000E+01
 1.000000E+02  0.000000E+00  1.000000E+01
 0.000000E+00  1.000000E+00  1.000000E+01
 1.000000E+01  1.000000E+00  1.000000E+01
 2.000000E+01  1.000000E+00  1.000000E+01
 3.000000E+01  1.000000E+00  1.000000E+01
 4.000000E+01  1.000000E+00  1.000000E+01
 5.000000E+01  1.000000E+00  1.000000E+01
 6.000000E+01  1.000000E+00  1.000000E+01
 7.000000E+01  1.000000E+00  1.000000E+01
 8.000000E+01  1.000000E+00  1.000000E+01
 9.000000E+01  1.000000E+00  1.000000E+01
 1.000000E+02  1.000000E+00  1.000000E+01
 0.000000E+00  0.000000E+00  1.500000E+01
 1.000000E+01  0.000000E+00  1.500000E+01
 2.000000E+01  0.000000E+00  1.500000E+01
 3.000000E+01  0.000000E+00  1.500000E+01
 4.000000E+01  0.000000E+00  1.500000E+01
 5.000000E+01  0.000000E+00  1.500000E+01
 6.000000E+01  0.000000E+00  1.500000E+01
 7.000000E+01  0.000000E+00  1.500000E+01
 8.000000E+01  0.000000E+00  1.500000E+01
 9.000000E+01  0.000000E+00  1.500000E+01
 1.000000E+02  0.000000E+00  1.500000E+01
 0.000000E+00  1.000000E+00  1.500000E+01
 1.000000E+01  1.000000E+00  1.500000E+01
 2.000000E+01  1.000000E+00  1.500000E+01
 3.000000E+01  1.000000E+00  1.500000E+01
 4.000000E+01  1.000000E+00  1.500000E+01
 5.000000E+01  1.000000E+00  1.500000E+01
 6.000000E+01  1.000000E+00  1.500000E+01
 7.000000E+01  1.000000E+00  1.500000E+01
 8.000000E+01  1.000000E+00  1.500000E+01
 9.000000E+01  1.000000E+00  1.500000E+01
 1.000000E+02  1.000000E+00  1.500000E+01
 0.000000E+00  0.000000E+00  2.000000E+01
 1.000000E+01  0.000000E+00  2.000000E+01
 2.000000E+01  0.000000E+00  2.000000E+01
 3.000000E+01  0.000000E+00  2.000000E+01
 4.000000E+01  0.000000E+00  2.000000E+01
 5.000000E+01  0.000000E+00  2.000000E+01
 6.000000E+01  0.000000E+00  2.000000E+01
 7.000000E+01  0.000000E+00  2.000000E+01
 8.000000E+01  0.000000E+00  2.000000E+01
 9.000000E+01  0.000000E+00  2.000000E+01
 1.000000E+02  0.000000E+00  2.000000E+01
 0.000000E+00  1.000000E+00  2.000000E+01
 1.000000E+01  1.000000E+00  2.000000E+01
 2.000000E+01  1.000000E+00  2.000000E+01
 3.000000E+01  1.000000E+00  2.000000E+01
 4.000000E+01  1.000000E+00  2.000000E+01
 5.000000E+01  1.000000E+00  2.000000E+01
 6.000000E+01  1.000000E+00  2.000000E+01
 7.000000E+01  1.000000E+00  2.000000E+01
 8.000000E+01  1.000000E+00  2.000000E+01
 9.000000E+01  1.000000E+00  2.000000E+01
 1.000000E+02  1.000000E+00  2.000000E+01
 0.000000E+00  0.000000E+00  2.500000E+01
 1.000000E+01  0.000000E+00  2.500000E+01
 2.000000E+01  0.000000E+00  2.500000E+01
 3.000000E+01  0.000000E+00  2.500000E+01
 4.000000E+01  0.000000E+00  2.500000E+01
 5.000000E+01  0.000000E+00  2.500000E+01
 6.000000E+01  0.000000E+00  2.500000E+01
 7.000000E+01  0.000000E+00  2.500000E+01
 8.000000E+01  0.000000E+00  2.500000E+01
 9.000000E+01  0.000000E+00  2.500000E+01
 1.000000E+02  0.000000E+00  2.500000E+01
 0.000000E+00  1.000000E+00  2.500000E+01
 1.000000E+01  1.000000E+00  2.500000E+01
 2.000000E+01  1.000000E+00  2.500000E+01
 3.000000E+01  1.000000E+00  2.500000E+01
 4.000000E+01  1.000000E+00  2.500000E+01
 5.000000E+01  1.000000E+00  2.500000E+01
 6.000000E+01  1.000000E+00  2.500000E+01
 7.000000E+01  1.000000E+00  2.500000E+01
 8.000000E+01  1.000000E+00  2.500000E+01
 9.000000E+01  1.000000E+00  2.500000E+01
 1.000000E+02  1.000000E+00  2.500000E+01
 0.000000E+00  0.000000E+00  3.000000E+01
 1.000000E+01  0.000000E+00  3.000000E+01
 2.000000E+01  0.000000E+00  3.000000E+01
 3.000000E+01  0.000000E+00  3.000000E+01
 4.000000E+01  0.000000E+00  3.000000E+01
 5.000000E+01  0.000000E+00  3.000000E+01
 6.000000E+01  0.000000E+00  3.000000E+01
 7.000000E+01  0.000000E+00  3.000000E+01
 8.000000E+01  0.000000E+00  3.000000E+01
 9.000000E+01  0.000000E+00  3.000000E+01
 1.000000E+02  0.000000E+00  3.000000E+01
 0.000000E+00  1.000000E+00  3.000000E+01
 1.000000E+01  1.000000E+00  3.000000E+01
 2.000000E+01  1.000000E+00  3.000000E+01
 3.000000E+01  1.000000E+00  3.000000E+01
 4.000000E+01  1.000000E+00  3.000000E+01
 5.000000E+01  1.000000E+00  3.000000E+01
 6.000000E+01  1.000000E+00  3.000000E+01
 7.000000E+01  1.000000E+00  3.000000E+01
 8.000000E+01  1.000000E+00  3.000000E+01
 9.000000E+01  1.000000E+00  3.000000E+01
 1.000000E+02  1.000000E+00  3.000000E+01
 0.000000E+00  0.000000E+00  3.500000E+01
 1.000000E+01  0.000000E+00  3.500000E+01
 2.000000E+01  0.000000E+00  3.500000E+01
 3.000000E+01  0.000000E+00  3.500000E+01
 4.000000E+01  0.000000E+00  3.500000E+01
 5.000000E+01  0.000000E+00  3.500000E+01
 6.000000E+01  0.000000E+00  3.500000E+01
 7.000000E+01  0.000000E+00  3.500000E+01
 8.000000E+01  0.000000E+00  3.500000E+01
 9.000000E+01  0.000000E+00  3.500000E+01
 1.000000E+02  0.000000E+00  3.500000E+01
 0.000000E+00  1.000000E+00  3.500000E+01
 1.000000E+01  1.000000E+00  3.500000E+01
 2.000000E+01  1.000000E+00  3.500000E+01
 3.000000E+01  1.000000E+00  3.500000E+01
 4.000000E+01  1.000000E+00  3.500000E+01
 5.000000E+01  1.000000E+00  3.500000E+01
 6.000000E+01  1.000000E+00  3.500000E+01
 7.000000E+01  1.000000E+00  3.500000E+01
 8.000000E+01  1.000000E+00  3.500000E+01
 9.000000E+01  1.000000E+00  3.500000E+01
 1.000000E+02  1.000000E+00  3.500000E+01
 0.000000E+00  0.000000E+00  4.000000E+01
 1.000000E+01  0.000000E+00  4.000000E+01
 2.000000E+01  0.000000E+00  4.000000E+01
 3.000000E+01  0.000000E+00  4.000000E+01
 4.000000E+01  0.000000E+00  4.000000E+01
 5.000000E+01  0.000000E+00  4.000000E+01
 6.000000E+01  0.000000E+00  4.000000E+01
 7.000000E+01  0.000000E+00  4.000000E+01
 8.000000E+01  0.000000E+00  4.000000E+01
 9.000000E+01  0.000000E+00  4.000000E+01
 1.000000E+02  0.000000E+00  4.000000E+01
 0.000000E+00  1.000000E+00  4.000000E+01
 1.000000E+01  1.000000E+00  4.000000E+01
 2.000000E+01  1.000000E+00  4.000000E+01
 3.000000E+01  1.000000E+00  4.000000E+01
 4.000000E+01  1.000000E+00  4.000000E+01
 5.000000E+01  1.000000E+00  4.000000E+01
 6.000000E+01  1.000000E+00  4.000000E+01
 7.000000E+01  1.000000E+00  4.000000E+01
 8.000000E+01  1.000000E+00  4.000000E+01
 9.000000E+01  1.000000E+00  4.000000E+01
 1.000000E+02  1.000000E+00  4.000000E+01
 0.000000E+00  0.000000E+00  4.500000E+01
 1.000000E+01  0.000000E+00  4.500000E+01
 2.000000E+01  0.000000E+00  4.500000E+01
 3.000000E+01  0.000000E+00  4.500000E+01
 4.000000E+01  0.000000E+00  4.500000E+01
 5.000000E+01  0.000000E+00  4.500000E+01
 6.000000E+01  0.000000E+00  4.500000E+01
 7.000000E+01  0.000000E+00  4.500000E+01
 8.000000E+01  0.000000E+00  4.500000E+01
 9.000000E+01  0.000000E+00  4.500000E+01
 1.000000E+02  0.000000E+00  4.500000E+01
 0.000000E+00  1.000000E+00  4.500000E+01
 1.000000E+01  1.000000E+00  4.500000E+01
 2.000000E+01  1.000000E+00  4.500000E+01
 3.000000E+01  1.000000E+00  4.500000E+01
 4.000000E+01  1.000000E+00  4.500000E+01
 5.000000E+01  1.000000E+00  4.500000E+01
 6.000000E+01  1.000000E+00  4.500000E+01
 7.000000E+01  1.000000E+00  4.500000E+01
 8.000000E+01  1.000000E+00  4.500000E+01
 9.000000E+01  1.000000E+00  4.500000E+01
 1.000000E+02  1.000000E+00  4.500000E+01
 0.000000E+00  0.000000E+00  5.000000E+01
 1.000000E+01  0.000000E+00  5.000000E+01
 2.000000E+01  0.000000E+00  5.000000E+01
 3.000000E+01  0.000000E+00  5.000000E+01
 4.000000E+01  0.000000E+00  5.000000E+01
 5.000000E+01  0.000000E+00  5.000000E+01
 6.000000E+01  0.000000E+00  5.000000E+01
 7.000000E+01  0.000000E+00  5.000000E+01
 8.000000E+01  0.000000E+00  5.000000E+01
 9.000000E+01  0.000000E+00  5.000000E+01
 1.000000E+02  0.000000E+00  5.000000E+01
 0.000000E+00  1.000000E+00  5.000000E+01
 1.000000E+01  1.000000E+00  5.000000E+01
 2.000000E+01  1.000000E+00  5.000000E+01
 3.000000E+01  1.000000E+00  5.000000E+01
[...]
CELL_DATA      200
SCALARS Porosity             float 1
LOOKUP_TABLE default
 4.377095E-01  4.377099E-01  4.377100E-01  4.377100E-01  4.377100E-01  4.377100E-01  4.377100E-01  4.377100E-01  4.377100E-01  4.377100E-01
 4.377052E-01  4.377093E-01  4.377099E-01  4.377100E-01  4.377100E-01  4.377100E-01  4.377100E-01  4.377100E-01  4.377100E-01  4.377100E-01
 4.376860E-01  4.377058E-01  4.377094E-01  4.377099E-01  4.377100E-01  4.377100E-01  4.377100E-01  4.377100E-01  4.377100E-01  4.377100E-01
 4.376317E-01  4.376934E-01  4.377075E-01  4.377097E-01  4.377100E-01  4.377100E-01  4.377100E-01  4.377100E-01  4.377100E-01  4.377100E-01
 4.375392E-01  4.376624E-01  4.377017E-01  4.377090E-01  4.377099E-01  4.377100E-01  4.377100E-01  4.377100E-01  4.377100E-01  4.377100E-01
 4.375330E-01  4.376096E-01  4.376891E-01  4.377071E-01  4.377097E-01  4.377100E-01  4.377100E-01  4.377100E-01  4.377100E-01  4.377100E-01
 4.379848E-01  4.375748E-01  4.376711E-01  4.377041E-01  4.377094E-01  4.377100E-01  4.377100E-01  4.377100E-01  4.377100E-01  4.377100E-01
 4.379849E-01  4.375647E-01  4.376620E-01  4.377021E-01  4.377091E-01  4.377099E-01  4.377100E-01  4.377100E-01  4.377100E-01  4.377100E-01
 4.379850E-01  4.375604E-01  4.376567E-01  4.377007E-01  4.377089E-01  4.377099E-01  4.377100E-01  4.377100E-01  4.377100E-01  4.377100E-01
 4.379850E-01  4.375587E-01  4.376542E-01  4.377000E-01  4.377088E-01  4.377099E-01  4.377100E-01  4.377100E-01  4.377100E-01  4.377100E-01
 4.379850E-01  4.375587E-01  4.376542E-01  4.377000E-01  4.377088E-01  4.377099E-01  4.377100E-01  4.377100E-01  4.377100E-01  4.377100E-01
 4.379849E-01  4.375604E-01  4.376567E-01  4.377007E-01  4.377089E-01  4.377099E-01  4.377100E-01  4.377100E-01  4.377100E-01  4.377100E-01
 4.379847E-01  4.375646E-01  4.376620E-01  4.377021E-01  4.377091E-01  4.377099E-01  4.377100E-01  4.377100E-01  4.377100E-01  4.377100E-01
 4.379845E-01  4.375748E-01  4.376712E-01  4.377041E-01  4.377094E-01  4.377100E-01  4.377100E-01  4.377100E-01  4.377100E-01  4.377100E-01
 4.375329E-01  4.376096E-01  4.376891E-01  4.377071E-01  4.377097E-01  4.377100E-01  4.377100E-01  4.377100E-01  4.377100E-01  4.377100E-01
 4.375392E-01  4.376624E-01  4.377017E-01  4.377090E-01  4.377099E-01  4.377100E-01  4.377100E-01  4.377100E-01  4.377100E-01  4.377100E-01
 4.376318E-01  4.376935E-01  4.377075E-01  4.377097E-01  4.377100E-01  4.377100E-01  4.377100E-01  4.377100E-01  4.377100E-01  4.377100E-01
 4.376860E-01  4.377058E-01  4.377094E-01  4.377100E-01  4.377100E-01  4.377100E-01  4.377100E-01  4.377100E-01  4.377100E-01  4.377100E-01
 4.377052E-01  4.377093E-01  4.377099E-01  4.377100E-01  4.377100E-01  4.377100E-01  4.377100E-01  4.377100E-01  4.377100E-01  4.377100E-01
 4.377095E-01  4.377100E-01  4.377100E-01  4.377100E-01  4.377100E-01  4.377100E-01  4.377100E-01  4.377100E-01  4.377100E-01  4.377100E-01


SCALARS Permeability         float 1
LOOKUP_TABLE default
 1.000000E-12  1.000000E-12  1.000000E-12  1.000000E-12  1.000000E-12  1.000000E-12  1.000000E-12  1.000000E-12  1.000000E-12  1.000000E-12
 1.000000E-12  1.000000E-12  1.000000E-12  1.000000E-12  1.000000E-12  1.000000E-12  1.000000E-12  1.000000E-12  1.000000E-12  1.000000E-12
 1.000000E-12  1.000000E-12  1.000000E-12  1.000000E-12  1.000000E-12  1.000000E-12  1.000000E-12  1.000000E-12  1.000000E-12  1.000000E-12
 1.000000E-12  1.000000E-12  1.000000E-12  1.000000E-12  1.000000E-12  1.000000E-12  1.000000E-12  1.000000E-12  1.000000E-12  1.000000E-12
 1.000000E-12  1.000000E-12  1.000000E-12  1.000000E-12  1.000000E-12  1.000000E-12  1.000000E-12  1.000000E-12  1.000000E-12  1.000000E-12
 1.000000E-12  1.000000E-12  1.000000E-12  1.000000E-12  1.000000E-12  1.000000E-12  1.000000E-12  1.000000E-12  1.000000E-12  1.000000E-12
 1.000000E-12  1.000000E-12  1.000000E-12  1.000000E-12  1.000000E-12  1.000000E-12  1.000000E-12  1.000000E-12  1.000000E-12  1.000000E-12
 1.000000E-12  1.000000E-12  1.000000E-12  1.000000E-12  1.000000E-12  1.000000E-12  1.000000E-12  1.000000E-12  1.000000E-12  1.000000E-12
 1.000000E-12  1.000000E-12  1.000000E-12  1.000000E-12  1.000000E-12  1.000000E-12  1.000000E-12  1.000000E-12  1.000000E-12  1.000000E-12
 1.000000E-12  1.000000E-12  1.000000E-12  1.000000E-12  1.000000E-12  1.000000E-12  1.000000E-12  1.000000E-12  1.000000E-12  1.000000E-12
 1.000000E-12  1.000000E-12  1.000000E-12  1.000000E-12  1.000000E-12  1.000000E-12  1.000000E-12  1.000000E-12  1.000000E-12  1.000000E-12
 1.000000E-12  1.000000E-12  1.000000E-12  1.000000E-12  1.000000E-12  1.000000E-12  1.000000E-12  1.000000E-12  1.000000E-12  1.000000E-12
 1.000000E-12  1.000000E-12  1.000000E-12  1.000000E-12  1.000000E-12  1.000000E-12  1.000000E-12  1.000000E-12  1.000000E-12  1.000000E-12
 1.000000E-12  1.000000E-12  1.000000E-12  1.000000E-12  1.000000E-12  1.000000E-12  1.000000E-12  1.000000E-12  1.000000E-12  1.000000E-12
 1.000000E-12  1.000000E-12  1.000000E-12  1.000000E-12  1.000000E-12  1.000000E-12  1.000000E-12  1.000000E-12  1.000000E-12  1.000000E-12
 1.000000E-12  1.000000E-12  1.000000E-12  1.000000E-12  1.000000E-12  1.000000E-12  1.000000E-12  1.000000E-12  1.000000E-12  1.000000E-12
 1.000000E-12  1.000000E-12  1.000000E-12  1.000000E-12  1.000000E-12  1.000000E-12  1.000000E-12  1.000000E-12  1.000000E-12  1.000000E-12
 1.000000E-12  1.000000E-12  1.000000E-12  1.000000E-12  1.000000E-12  1.000000E-12  1.000000E-12  1.000000E-12  1.000000E-12  1.000000E-12
 1.000000E-12  1.000000E-12  1.000000E-12  1.000000E-12  1.000000E-12  1.000000E-12  1.000000E-12  1.000000E-12  1.000000E-12  1.000000E-12
 1.000000E-12  1.000000E-12  1.000000E-12  1.000000E-12  1.000000E-12  1.000000E-12  1.000000E-12  1.000000E-12  1.000000E-12  1.000000E-12


SCALARS Liquid_Pressure      float 1
LOOKUP_TABLE default
 7.947750E+06  7.908076E+06  7.849084E+06  7.785205E+06  7.723683E+06  7.667273E+06  7.616542E+06  7.571160E+06  7.530505E+06  7.493938E+06
 7.922421E+06  7.875963E+06  7.811289E+06  7.743936E+06  7.680524E+06  7.623132E+06  7.571900E+06  7.526259E+06  7.485466E+06  7.448818E+06
 7.920319E+06  7.857661E+06  7.780763E+06  7.706352E+06  7.639217E+06  7.579922E+06  7.527723E+06  7.481587E+06  7.440531E+06  7.403728E+06
 7.949549E+06  7.854547E+06  7.757177E+06  7.672002E+06  7.599461E+06  7.537472E+06  7.483923E+06  7.437100E+06  7.395680E+06  7.358661E+06
 8.026290E+06  7.868057E+06  7.739669E+06  7.640125E+06  7.560804E+06  7.495538E+06  7.440373E+06  7.392733E+06  7.350883E+06  7.313610E+06
 8.182187E+06  7.897999E+06  7.726347E+06  7.609577E+06  7.522648E+06  7.453817E+06  7.396919E+06  7.348412E+06  7.306107E+06  7.268566E+06
 8.480329E+06  7.937815E+06  7.713732E+06  7.578842E+06  7.484290E+06  7.411968E+06  7.353395E+06  7.304055E+06  7.261314E+06  7.223518E+06
 8.628588E+06  7.961989E+06  7.696782E+06  7.546218E+06  7.445008E+06  7.369656E+06  7.309639E+06  7.259584E+06  7.216471E+06  7.178457E+06
 8.688893E+06  7.963589E+06  7.671981E+06  7.510249E+06  7.404163E+06  7.326583E+06  7.265508E+06  7.214932E+06  7.171547E+06  7.133375E+06
 8.690546E+06  7.941656E+06  7.637405E+06  7.469938E+06  7.361289E+06  7.282533E+06  7.220899E+06  7.170048E+06  7.126521E+06  7.088265E+06
 8.645336E+06  7.896485E+06  7.592248E+06  7.424789E+06  7.316143E+06  7.237389E+06  7.175757E+06  7.124906E+06  7.081380E+06  7.043125E+06
 8.553268E+06  7.828077E+06  7.536512E+06  7.374801E+06  7.268727E+06  7.191153E+06  7.130081E+06  7.079507E+06  7.036125E+06  6.997955E+06
 8.402571E+06  7.736145E+06  7.471003E+06  7.320473E+06  7.219282E+06  7.143938E+06  7.083927E+06  7.033877E+06  6.990768E+06  6.952757E+06
 8.163971E+06  7.621655E+06  7.397650E+06  7.262802E+06  7.168274E+06  7.095964E+06  7.037399E+06  6.988065E+06  6.945330E+06  6.907538E+06
 7.775591E+06  7.491542E+06  7.319969E+06  7.203245E+06  7.116342E+06  7.047526E+06  6.990638E+06  6.942139E+06  6.899841E+06  6.862306E+06
 7.529455E+06  7.371319E+06  7.243001E+06  7.143503E+06  7.064210E+06  6.998961E+06  6.943807E+06  6.896177E+06  6.854336E+06  6.817071E+06
 7.362467E+06  7.267533E+06  7.170225E+06  7.085093E+06  7.012579E+06  6.950607E+06  6.897072E+06  6.850261E+06  6.808851E+06  6.771841E+06
 7.242982E+06  7.180373E+06  7.103526E+06  7.029153E+06  6.962045E+06  6.902770E+06  6.850587E+06  6.804465E+06  6.763421E+06  6.726628E+06
 7.154817E+06  7.108396E+06  7.043765E+06  6.976447E+06  6.913063E+06  6.855692E+06  6.804478E+06  6.758853E+06  6.718074E+06  6.681439E+06
 7.089864E+06  7.050220E+06  6.991268E+06  6.927424E+06  6.865931E+06  6.809545E+06  6.758835E+06  6.713470E+06  6.672831E+06  6.636279E+06


SCALARS Temperature          float 1
LOOKUP_TABLE default
 1.500460E+02  1.500348E+02  1.500291E+02  1.500261E+02  1.500231E+02  1.500192E+02  1.500149E+02  1.500107E+02  1.500070E+02  1.500038E+02
 1.500742E+02  1.500598E+02  1.500426E+02  1.500312E+02  1.500246E+02  1.500195E+02  1.500149E+02  1.500107E+02  1.500070E+02  1.500038E+02
 1.500844E+02  1.500829E+02  1.500640E+02  1.500427E+02  1.500291E+02  1.500210E+02  1.500154E+02  1.500109E+02  1.500071E+02  1.500038E+02
 1.500820E+02  1.500942E+02  1.500853E+02  1.500590E+02  1.500368E+02  1.500239E+02  1.500164E+02  1.500113E+02  1.500072E+02  1.500039E+02
 1.500722E+02  1.500965E+02  1.501015E+02  1.500771E+02  1.500473E+02  1.500282E+02  1.500179E+02  1.500118E+02  1.500074E+02  1.500040E+02
 1.500512E+02  1.500948E+02  1.501128E+02  1.500944E+02  1.500594E+02  1.500337E+02  1.500199E+02  1.500125E+02  1.500077E+02  1.500041E+02
 1.500085E+02  1.500929E+02  1.501223E+02  1.501103E+02  1.500720E+02  1.500398E+02  1.500222E+02  1.500133E+02  1.500080E+02  1.500042E+02
 1.500029E+02  1.501000E+02  1.501337E+02  1.501251E+02  1.500840E+02  1.500458E+02  1.500244E+02  1.500140E+02  1.500083E+02  1.500043E+02
 1.500011E+02  1.501049E+02  1.501418E+02  1.501358E+02  1.500932E+02  1.500508E+02  1.500264E+02  1.500147E+02  1.500085E+02  1.500044E+02
 1.500011E+02  1.501084E+02  1.501474E+02  1.501429E+02  1.500993E+02  1.500541E+02  1.500277E+02  1.500152E+02  1.500087E+02  1.500045E+02
 1.500011E+02  1.501083E+02  1.501473E+02  1.501429E+02  1.500993E+02  1.500541E+02  1.500277E+02  1.500152E+02  1.500087E+02  1.500045E+02
 1.500025E+02  1.501081E+02  1.501464E+02  1.501406E+02  1.500967E+02  1.500526E+02  1.500272E+02  1.500151E+02  1.500087E+02  1.500045E+02
 1.500058E+02  1.501069E+02  1.501433E+02  1.501346E+02  1.500907E+02  1.500494E+02  1.500261E+02  1.500148E+02  1.500086E+02  1.500044E+02
 1.500136E+02  1.501045E+02  1.501376E+02  1.501245E+02  1.500814E+02  1.500446E+02  1.500244E+02  1.500142E+02  1.500084E+02  1.500044E+02
 1.500695E+02  1.501172E+02  1.501368E+02  1.501138E+02  1.500712E+02  1.500394E+02  1.500225E+02  1.500136E+02  1.500082E+02  1.500043E+02
 1.501037E+02  1.501306E+02  1.501335E+02  1.500999E+02  1.500599E+02  1.500341E+02  1.500206E+02  1.500130E+02  1.500080E+02  1.500042E+02
 1.501266E+02  1.501388E+02  1.501217E+02  1.500818E+02  1.500484E+02  1.500293E+02  1.500188E+02  1.500124E+02  1.500077E+02  1.500041E+02
 1.501401E+02  1.501320E+02  1.500982E+02  1.500618E+02  1.500384E+02  1.500253E+02  1.500174E+02  1.500118E+02  1.500075E+02  1.500040E+02
 1.501307E+02  1.501015E+02  1.500678E+02  1.500443E+02  1.500309E+02  1.500225E+02  1.500163E+02  1.500114E+02  1.500073E+02  1.500039E+02
 1.500821E+02  1.500576E+02  1.500417E+02  1.500326E+02  1.500263E+02  1.500207E+02  1.500156E+02  1.500111E+02  1.500072E+02  1.500039E+02


SCALARS pH                   float 1
LOOKUP_TABLE default
 6.145067E+00  6.144746E+00  6.144456E+00  6.144272E+00  6.144184E+00  6.144149E+00  6.144134E+00  6.144126E+00  6.144120E+00  6.144115E+00
 6.145493E+00  6.145273E+00  6.144880E+00  6.144504E+00  6.144276E+00  6.144177E+00  6.144141E+00  6.144127E+00  6.144120E+00  6.144115E+00
 6.145546E+00  6.145511E+00  6.145230E+00  6.144786E+00  6.144421E+00  6.144229E+00  6.144155E+00  6.144130E+00  6.144121E+00  6.144115E+00
 6.145287E+00  6.145562E+00  6.145437E+00  6.145043E+00  6.144595E+00  6.144306E+00  6.144179E+00  6.144136E+00  6.144122E+00  6.144115E+00
 6.142392E+00  6.145450E+00  6.145530E+00  6.145236E+00  6.144768E+00  6.144397E+00  6.144213E+00  6.144145E+00  6.144124E+00  6.144116E+00
 6.119541E+00  6.144368E+00  6.145537E+00  6.145363E+00  6.144915E+00  6.144490E+00  6.144250E+00  6.144156E+00  6.144127E+00  6.144116E+00
 5.999502E+00  6.137853E+00  6.145352E+00  6.145439E+00  6.145028E+00  6.144571E+00  6.144287E+00  6.144168E+00  6.144129E+00  6.144117E+00
 5.999492E+00  6.136273E+00  6.145279E+00  6.145491E+00  6.145108E+00  6.144634E+00  6.144317E+00  6.144178E+00  6.144132E+00  6.144117E+00
 5.999493E+00  6.135538E+00  6.145236E+00  6.145524E+00  6.145161E+00  6.144677E+00  6.144338E+00  6.144185E+00  6.144134E+00  6.144118E+00
 5.999495E+00  6.135242E+00  6.145217E+00  6.145541E+00  6.145190E+00  6.144701E+00  6.144350E+00  6.144189E+00  6.144135E+00  6.144118E+00
 5.999491E+00  6.135238E+00  6.145214E+00  6.145539E+00  6.145189E+00  6.144701E+00  6.144351E+00  6.144190E+00  6.144135E+00  6.144118E+00
 5.999487E+00  6.135529E+00  6.145231E+00  6.145521E+00  6.145160E+00  6.144677E+00  6.144339E+00  6.144186E+00  6.144134E+00  6.144118E+00
 5.999484E+00  6.136262E+00  6.145273E+00  6.145489E+00  6.145107E+00  6.144633E+00  6.144317E+00  6.144179E+00  6.144132E+00  6.144118E+00
 5.999496E+00  6.137842E+00  6.145349E+00  6.145437E+00  6.145027E+00  6.144572E+00  6.144288E+00  6.144169E+00  6.144130E+00  6.144117E+00
 6.119547E+00  6.144369E+00  6.145540E+00  6.145365E+00  6.144916E+00  6.144491E+00  6.144252E+00  6.144158E+00  6.144127E+00  6.144117E+00
 6.142404E+00  6.145463E+00  6.145541E+00  6.145241E+00  6.144770E+00  6.144400E+00  6.144214E+00  6.144147E+00  6.144125E+00  6.144116E+00
 6.145309E+00  6.145584E+00  6.145451E+00  6.145049E+00  6.144599E+00  6.144309E+00  6.144181E+00  6.144138E+00  6.144123E+00  6.144116E+00
 6.145577E+00  6.145534E+00  6.145242E+00  6.144791E+00  6.144424E+00  6.144232E+00  6.144157E+00  6.144131E+00  6.144121E+00  6.144115E+00
 6.145519E+00  6.145288E+00  6.144886E+00  6.144507E+00  6.144279E+00  6.144178E+00  6.144142E+00  6.144128E+00  6.144121E+00  6.144115E+00
 6.145074E+00  6.144749E+00  6.144456E+00  6.144272E+00  6.144184E+00  6.144149E+00  6.144134E+00  6.144126E+00  6.144120E+00  6.144115E+00


SCALARS Total_H+             float 1
LOOKUP_TABLE default
-3.052696E-03 -3.054832E-03 -3.056752E-03 -3.057979E-03 -3.058612E-03 -3.058938E-03 -3.059145E-03 -3.059306E-03 -3.059440E-03 -3.059557E-03
-3.049825E-03 -3.051149E-03 -3.053819E-03 -3.056397E-03 -3.057992E-03 -3.058753E-03 -3.059102E-03 -3.059298E-03 -3.059439E-03 -3.059556E-03
-3.049695E-03 -3.049470E-03 -3.051267E-03 -3.054384E-03 -3.056969E-03 -3.058380E-03 -3.058996E-03 -3.059273E-03 -3.059434E-03 -3.059554E-03
-3.049421E-03 -3.049233E-03 -3.049700E-03 -3.052463E-03 -3.055699E-03 -3.057824E-03 -3.058816E-03 -3.059226E-03 -3.059422E-03 -3.059551E-03
-3.034794E-03 -3.049177E-03 -3.048982E-03 -3.050943E-03 -3.054393E-03 -3.057145E-03 -3.058569E-03 -3.059155E-03 -3.059404E-03 -3.059546E-03
-2.907418E-03 -3.044044E-03 -3.048629E-03 -3.049865E-03 -3.053217E-03 -3.056435E-03 -3.058280E-03 -3.059066E-03 -3.059381E-03 -3.059540E-03
-2.307400E-03 -3.007579E-03 -3.047490E-03 -3.049086E-03 -3.052248E-03 -3.055783E-03 -3.057993E-03 -3.058973E-03 -3.059356E-03 -3.059533E-03
-2.307343E-03 -2.998392E-03 -3.046688E-03 -3.048440E-03 -3.051476E-03 -3.055245E-03 -3.057749E-03 -3.058891E-03 -3.059332E-03 -3.059527E-03
-2.307283E-03 -2.994006E-03 -3.046140E-03 -3.047994E-03 -3.050934E-03 -3.054852E-03 -3.057563E-03 -3.058826E-03 -3.059314E-03 -3.059522E-03
-2.307264E-03 -2.992204E-03 -3.045833E-03 -3.047723E-03 -3.050617E-03 -3.054623E-03 -3.057454E-03 -3.058787E-03 -3.059302E-03 -3.059519E-03
-2.307307E-03 -2.992238E-03 -3.045857E-03 -3.047739E-03 -3.050623E-03 -3.054622E-03 -3.057450E-03 -3.058784E-03 -3.059300E-03 -3.059518E-03
-2.307389E-03 -2.994010E-03 -3.046066E-03 -3.047895E-03 -3.050856E-03 -3.054805E-03 -3.057537E-03 -3.058812E-03 -3.059307E-03 -3.059519E-03
-2.307505E-03 -2.998345E-03 -3.046497E-03 -3.048221E-03 -3.051317E-03 -3.055155E-03 -3.057701E-03 -3.058866E-03 -3.059321E-03 -3.059522E-03
-2.307599E-03 -3.007433E-03 -3.047148E-03 -3.048740E-03 -3.052015E-03 -3.055656E-03 -3.057929E-03 -3.058940E-03 -3.059340E-03 -3.059527E-03
-2.907216E-03 -3.043540E-03 -3.048017E-03 -3.049360E-03 -3.052913E-03 -3.056279E-03 -3.058203E-03 -3.059028E-03 -3.059363E-03 -3.059533E-03
-3.034080E-03 -3.048275E-03 -3.048109E-03 -3.050328E-03 -3.054055E-03 -3.056979E-03 -3.058488E-03 -3.059115E-03 -3.059386E-03 -3.059539E-03
-3.048228E-03 -3.047985E-03 -3.048687E-03 -3.051840E-03 -3.055379E-03 -3.057668E-03 -3.058741E-03 -3.059189E-03 -3.059405E-03 -3.059544E-03
-3.048120E-03 -3.048080E-03 -3.050319E-03 -3.053861E-03 -3.056708E-03 -3.058251E-03 -3.058933E-03 -3.059242E-03 -3.059419E-03 -3.059548E-03
-3.048227E-03 -3.049992E-03 -3.053135E-03 -3.056038E-03 -3.057812E-03 -3.058664E-03 -3.059058E-03 -3.059276E-03 -3.059428E-03 -3.059551E-03
-3.051730E-03 -3.054235E-03 -3.056423E-03 -3.057809E-03 -3.058527E-03 -3.058896E-03 -3.059124E-03 -3.059295E-03 -3.059434E-03 -3.059553E-03


SCALARS Total_SiO2(aq)       float 1
LOOKUP_TABLE default
 1.039932E-02  1.039558E-02  1.039461E-02  1.039427E-02  1.039400E-02  1.039367E-02  1.039330E-02  1.039295E-02  1.039263E-02  1.039236E-02
 1.042756E-02  1.040202E-02  1.039643E-02  1.039483E-02  1.039415E-02  1.039370E-02  1.039331E-02  1.039295E-02  1.039263E-02  1.039236E-02
 1.053698E-02  1.042486E-02  1.040138E-02  1.039624E-02  1.039461E-02  1.039385E-02  1.039336E-02  1.039296E-02  1.039264E-02  1.039236E-02
 1.083555E-02  1.049601E-02  1.041492E-02  1.039917E-02  1.039547E-02  1.039413E-02  1.039345E-02  1.039300E-02  1.039265E-02  1.039237E-02
 1.141319E-02  1.066805E-02  1.044952E-02  1.040537E-02  1.039692E-02  1.039457E-02  1.039359E-02  1.039305E-02  1.039267E-02  1.039237E-02
 1.222516E-02  1.098150E-02  1.052077E-02  1.041760E-02  1.039923E-02  1.039518E-02  1.039378E-02  1.039311E-02  1.039269E-02  1.039238E-02
 1.305995E-02  1.139078E-02  1.062479E-02  1.043614E-02  1.040243E-02  1.039593E-02  1.039400E-02  1.039318E-02  1.039272E-02  1.039239E-02
 1.305896E-02  1.149992E-02  1.067799E-02  1.044896E-02  1.040511E-02  1.039665E-02  1.039422E-02  1.039325E-02  1.039274E-02  1.039240E-02
 1.305839E-02  1.154849E-02  1.070906E-02  1.045774E-02  1.040713E-02  1.039722E-02  1.039441E-02  1.039331E-02  1.039276E-02  1.039241E-02
 1.305828E-02  1.156816E-02  1.072370E-02  1.046237E-02  1.040832E-02  1.039759E-02  1.039454E-02  1.039336E-02  1.039278E-02  1.039242E-02
 1.305853E-02  1.156823E-02  1.072370E-02  1.046236E-02  1.040831E-02  1.039759E-02  1.039454E-02  1.039336E-02  1.039278E-02  1.039242E-02
 1.305918E-02  1.154891E-02  1.070943E-02  1.045812E-02  1.040742E-02  1.039738E-02  1.039449E-02  1.039335E-02  1.039278E-02  1.039242E-02
 1.306026E-02  1.150070E-02  1.067876E-02  1.044973E-02  1.040567E-02  1.039695E-02  1.039437E-02  1.039331E-02  1.039277E-02  1.039241E-02
 1.306173E-02  1.139192E-02  1.062601E-02  1.043731E-02  1.040323E-02  1.039635E-02  1.039419E-02  1.039327E-02  1.039275E-02  1.039241E-02
 1.222703E-02  1.098325E-02  1.052267E-02  1.041921E-02  1.040023E-02  1.039568E-02  1.039400E-02  1.039321E-02  1.039273E-02  1.039240E-02
 1.141561E-02  1.067066E-02  1.045212E-02  1.040730E-02  1.039800E-02  1.039508E-02  1.039382E-02  1.039315E-02  1.039271E-02  1.039239E-02
 1.083892E-02  1.049954E-02  1.041795E-02  1.040113E-02  1.039648E-02  1.039460E-02  1.039366E-02  1.039309E-02  1.039269E-02  1.039238E-02
 1.054139E-02  1.042891E-02  1.040430E-02  1.039790E-02  1.039543E-02  1.039423E-02  1.039353E-02  1.039304E-02  1.039267E-02  1.039237E-02
 1.043227E-02  1.040559E-02  1.039862E-02  1.039598E-02  1.039471E-02  1.039396E-02  1.039343E-02  1.039301E-02  1.039266E-02  1.039237E-02