# vtk DataFile Version 2.0
PFLOTRAN output
ASCII
DATASET UNSTRUCTURED_GRID
POINTS          462 float
 0.000000E+00  0.000000E+00  0.000000E+00
 2.000000E+03  0.000000E+00  0.000000E+00
 4.000000E+03  0.000000E+00  0.000000E+00
 6.000000E+03  0.000000E+00  0.000000E+00
 8.000000E+03  0.000000E+00  0.000000E+00
 1.000000E+04  0.000000E+00  0.000000E+00
 1.200000E+04  0.000000E+00  0.000000E+00
 1.400000E+04  0.000000E+00  0.000000E+00
 1.600000E+04  0.000000E+00  0.000000E+00
 1.800000E+04  0.000000E+00  0.000000E+00
 2.000000E+04  0.000000E+00  0.000000E+00
 0.000000E+00  1.000000E+00  0.000000E+00
 2.000000E+03  1.000000E+00  0.000000E+00
 4.000000E+03  1.000000E+00  0.000000E+00
 6.000000E+03  1.000000E+00  0.000000E+00
 8.000000E+03  1.000000E+00  0.000000E+00
 1.000000E+04  1.000000E+00  0.000000E+00
 1.200000E+04  1.000000E+00  0.000000E+00
 1.400000E+04  1.000000E+00  0.000000E+00
 1.600000E+04  1.000000E+00  0.000000E+00
 1.800000E+04  1.000000E+00  0.000000E+00
 2.000000E+04  1.000000E+00  0.000000E+00
 0.000000E+00  0.000000E+00  5.000000E+00
 2.000000E+03  0.000000E+00  5.000000E+00
 4.000000E+03  0.000000E+00  5.000000E+00
 6.000000E+03  0.000000E+00  5.000000E+00
 8.000000E+03  0.000000E+00  5.000000E+00
 1.000000E+04  0.000000E+00  5.000000E+00
 1.200000E+04  0.000000E+00  5.000000E+00
 1.400000E+04  0.000000E+00  5.000000E+00
 1.600000E+04  0.000000E+00  5.000000E+00
 1.800000E+04  0.000000E+00  5.000000E+00
 2.000000E+04  0.000000E+00  5.000000E+00
 0.000000E+00  1.000000E+00  5.000000E+00
 2.000000E+03  1.000000E+00  5.000000E+00
 4.000000E+03  1.000000E+00  5.000000E+00
 6.000000E+03  1.000000E+00  5.000000E+00
 8.000000E+03  1.000000E+00  5.000000E+00
 1.000000E+04  1.000000E+00  5.000000E+00
 1.200000E+04  1.000000E+00  5.000000E+00
 1.400000E+04  1.000000E+00  5.000000E+00
 1.600000E+04  1.000000E+00  5.000000E+00
 1.800000E+04  1.000000E+00  5.000000E+00
 2.000000E+04  1.000000E+00  5.000000E+00
 0.000000E+00  0.000000E+00  1.000000E+01
 2.000000E+03  0.000000E+00  1.000000E+01
 4.000000E+03  0.000000E+00  1.000000E+01
 6.000000E+03  0.000000E+00  1.000000E+01
 8.000000E+03  0.000000E+00  1.000000E+01
 1.000000E+04  0.000000E+00  1.000000E+01
 1.200000E+04  0.000000E+00  1.000000E+01
 1.400000E+04  0.000000E+00  1.000000E+01
 1.600000E+04  0.000000E+00  1.000000E+01
 1.800000E+04  0.000000E+00  1.000000E+01
 2.000000E+04  0.000000E+00  1.000000E+01
 0.000000E+00  1.000000E+00  1.000000E+01
 2.000000E+03  1.000000E+00  1.000000E+01
 4.000000E+03  1.000000E+00  1.000000E+01
 6.000000E+03  1.000000E+00  1.000000E+01
 8.000000E+03  1.000000E+00  1.000000E+01
 1.000000E+04  1.000000E+00  1.000000E+01
 1.200000E+04  1.000000E+00  1.000000E+01
 1.400000E+04  1.000000E+00  1.000000E+01
 1.600000E+04  1.000000E+00  1.000000E+01
 1.800000E+04  1.000000E+00  1.000000E+01
 2.000000E+04  1.000000E+00  1.000000E+01
 0.000000E+00  0.000000E+00  1.500000E+01
 2.000000E+03  0.000000E+00  1.500000E+01
 4.000000E+03  0.000000E+00  1.500000E+01
 6.000000E+03  0.000000E+00  1.500000E+01
 8.000000E+03  0.000000E+00  1.500000E+01
 1.000000E+04  0.000000E+00  1.500000E+01
 1.200000E+04  0.000000E+00  1.500000E+01
 1.400000E+04  0.000000E+00  1.500000E+01
 1.600000E+04  0.000000E+00  1.500000E+01
 1.800000E+04  0.000000E+00  1.500000E+01
 2.000000E+04  0.000000E+00  1.500000E+01
 0.000000E+00  1.000000E+00  1.500000E+01
 2.000000E+03  1.000000E+00  1.500000E+01
 4.000000E+03  1.000000E+00  1.500000E+01
 6.000000E+03  1.000000E+00  1.500000E+01
 8.000000E+03  1.000000E+00  1.500000E+01
 1.000000E+04  1.000000E+00  1.500000E+01
 1.200000E+04  1.000000E+00  1.500000E+01
 1.400000E+04  1.000000E+00  1.500000E+01
 1.600000E+04  1.000000E+00  1.500000E+01
 1.800000E+04  1.000000E+00  1.500000E+01
 2.000000E+04  1.000000E+00  1.500000E+01
 0.000000E+00  0.000000E+00  2.000000E+01
 2.000000E+03  0.000000E+00  2.000000E+01
 4.000000E+03  0.000000E+00  2.000000E+01
 6.000000E+03  0.000000E+00  2.000000E+01
 8.000000E+03  0.000000E+00  2.000000E+01
 1.000000E+04  0.000000E+00  2.000000E+01
 1.200000E+04  0.000000E+00  2.000000E+01
 1.400000E+04  0.000000E+00  2.000000E+01
 1.600000E+04  0.000000E+00  2.000000E+01
 1.800000E+04  0.000000E+00  2.000000E+01
 2.000000E+04  0.000000E+00  2.000000E+01
 0.000000E+00  1.000000E+00  2.000000E+01
 2.000000E+03  1.000000E+00  2.000000E+01
 4.000000E+03  1.000000E+00  2.000000E+01
 6.000000E+03  1.000000E+00  2.000000E+01
 8.000000E+03  1.000000E+00  2.000000E+01
 1.000000E+04  1.000000E+00  2.000000E+01
 1.200000E+04  1.000000E+00  2.000000E+01
 1.400000E+04  1.000000E+00  2.000000E+01
 1.600000E+04  1.000000E+00  2.000000E+01
 1.800000E+04  1.000000E+00  2.000000E+01
 2.000000E+04  1.000000E+00  2.000000E+01
 0.000000E+00  0.000000E+00  2.500000E+01
 2.000000E+03  0.000000E+00  2.500000E+01
 4.000000E+03  0.000000E+00  2.500000E+01
 6.000000E+03  0.000000E+00  2.500000E+01
 8.000000E+03  0.000000E+00  2.500000E+01
 1.000000E+04  0.000000E+00  2.500000E+01
 1.200000E+04  0.000000E+00  2.500000E+01
 1.400000E+04  0.000000E+00  2.500000E+01
 1.600000E+04  0.000000E+00  2.500000E+01
 1.800000E+04  0.000000E+00  2.500000E+01
 2.000000E+04  0.000000E+00  2.500000E+01
 0.000000E+00  1.000000E+00  2.500000E+01
 2.000000E+03  1.000000E+00  2.500000E+01
 4.000000E+03  1.000000E+00  2.500000E+01
 6.000000E+03  1.000000E+00  2.500000E+01
 8.000000E+03  1.000000E+00  2.500000E+01
 1.000000E+04  1.000000E+00  2.500000E+01
 1.200000E+04  1.000000E+00  2.500000E+01
 1.400000E+04  1.000000E+00  2.500000E+01
 1.600000E+04  1.000000E+00  2.500000E+01
 1.800000E+04  1.000000E+00  2.500000E+01
 2.000000E+04  1.000000E+00  2.500000E+01
 0.000000E+00  0.000000E+00  3.000000E+01
 2.000000E+03  0.000000E+00  3.000000E+01
 4.000000E+03  0.000000E+00  3.000000E+01
 6.000000E+03  0.000000E+00  3.000000E+01
 8.000000E+03  0.000000E+00  3.000000E+01
 1.000000E+04  0.000000E+00  3.000000E+01
 1.200000E+04  0.000000E+00  3.000000E+01
 1.400000E+04  0.000000E+00  3.000000E+01
 1.600000E+04  0.000000E+00  3.000000E+01
 1.800000E+04  0.000000E+00  3.000000E+01
 2.000000E+04  0.000000E+00  3.000000E+01
 0.000000E+00  1.000000E+00  3.000000E+01
 2.000000E+03  1.000000E+00  3.000000E+01
 4.000000E+03  1.000000E+00  3.000000E+01
 6.000000E+03  1.000000E+00  3.000000E+01
 8.000000E+03  1.000000E+00  3.000000E+01
 1.000000E+04  1.000000E+00  3.000000E+01
 1.200000E+04  1.000000E+00  3.000000E+01
 1.400000E+04  1.000000E+00  3.000000E+01
 1.600000E+04  1.000000E+00  3.000000E+01
 1.800000E+04  1.000000E+00  3.000000E+01
 2.000000E+04  1.000000E+00  3.000000E+01
 0.000000E+00  0.000000E+00  3.500000E+01
 2.000000E+03  0.000000E+00  3.500000E+01
 4.000000E+03  0.000000E+00  3.500000E+01
 6.000000E+03  0.000000E+00  3.500000E+01
 8.000000E+03  0.000000E+00  3.500000E+01
 1.000000E+04  0.000000E+00  3.500000E+01
 1.200000E+04  0.000000E+00  3.500000E+01
 1.400000E+04  0.000000E+00  3.500000E+01
 1.600000E+04  0.000000E+00  3.500000E+01
 1.800000E+04  0.000000E+00  3.500000E+01
 2.000000E+04  0.000000E+00  3.500000E+01
 0.000000E+00  1.000000E+00  3.500000E+01
 2.000000E+03  1.000000E+00  3.500000E+01
 4.000000E+03  1.000000E+00  3.500000E+01
 6.000000E+03  1.000000E+00  3.500000E+01
 8.000000E+03  1.000000E+00  3.500000E+01
 1.000000E+04  1.000000E+00  3.500000E+01
 1.200000E+04  1.000000E+00  3.500000E+01
 1.400000E+04  1.000000E+00  3.500000E+01
 1.600000E+04  1.000000E+00  3.500000E+01
 1.800000E+04  1.000000E+00  3.500000E+01
 2.000000E+04  1.000000E+00  3.500000E+01
 0.000000E+00  0.000000E+00  4.000000E+01
 2.000000E+03  0.000000E+00  4.000000E+01
 4.000000E+03  0.000000E+00  4.000000E+01
 6.000000E+03  0.000000E+00  4.000000E+01
 8.000000E+03  0.000000E+00  4.000000E+01
 1.000000E+04  0.000000E+00  4.000000E+01
 1.200000E+04  0.000000E+00  4.000000E+01
 1.400000E+04  0.000000E+00  4.000000E+01
 1.600000E+04  0.000000E+00  4.000000E+01
 1.800000E+04  0.000000E+00  4.000000E+01
 2.000000E+04  0.000000E+00  4.000000E+01
 0.000000E+00  1.000000E+00  4.000000E+01
 2.000000E+03  1.000000E+00  4.000000E+01
 4.000000E+03  1.000000E+00  4.000000E+01
 6.000000E+03  1.000000E+00  4.000000E+01
 8.000000E+03  1.000000E+00  4.000000E+01
 1.000000E+04  1.000000E+00  4.000000E+01
 1.200000E+04  1.000000E+00  4.000000E+01
 1.400000E+04  1.000000E+00  4.000000E+01
 1.600000E+04  1.000000E+00  4.000000E+01
 1.800000E+04  1.000000E+00  4.000000E+01
 2.000000E+04  1.000000E+00  4.000000E+01
 0.000000E+00  0.000000E+00  4.500000E+01
 2.000000E+03  0.000000E+00  4.500000E+01
 4.000000E+03  0.000000E+00  4.500000E+01
 6.000000E+03  0.000000E+00  4.500000E+01
 8.000000E+03  0.000000E+00  4.500000E+01
 1.000000E+04  0.000000E+00  4.500000E+01
 1.200000E+04  0.000000E+00  4.500000E+01
 1.400000E+04  0.000000E+00  4.500000E+01
 1.600000E+04  0.000000E+00  4.500000E+01
 1.800000E+04  0.000000E+00  4.500000E+01
 2.000000E+04  0.000000E+00  4.500000E+01
 0.000000E+00  1.000000E+00  4.500000E+01
 2.000000E+03  1.000000E+00  4.500000E+01
 4.000000E+03  1.000000E+00  4.500000E+01
 6.000000E+03  1.000000E+00  4.500000E+01
 8.000000E+03  1.000000E+00  4.500000E+01
 1.000000E+04  1.000000E+00  4.500000E+01
 1.200000E+04  1.000000E+00  4.500000E+01
 1.400000E+04  1.000000E+00  4.500000E+01
 1.600000E+04  1.000000E+00  4.500000E+01
 1.800000E+04  1.000000E+00  4.500000E+01
 2.000000E+04  1.000000E+00  4.500000E+01
 0.000000E+00  0.000000E+00  5.000000E+01
 2.000000E+03  0.000000E+00  5.000000E+01
 4.000000E+03  0.000000E+00  5.000000E+01
 6.000000E+03  0.000000E+00  5.000000E+01
 8.000000E+03  0.000000E+00  5.000000E+01
 1.000000E+04  0.000000E+00  5.000000E+01
 1.200000E+04  0.000000E+00  5.000000E+01
 1.400000E+04  0.000000E+00  5.000000E+01
 1.600000E+04  0.000000E+00  5.000000E+01
 1.800000E+04  0.000000E+00  5.000000E+01
 2.000000E+04  0.000000E+00  5.000000E+01
 0.000000E+00  1.000000E+00  5.000000E+01
 2.000000E+03  1.000000E+00  5.000000E+01
 4.000000E+03  1.000000E+00  5.000000E+01
 6.000000E+03  1.000000E+00  5.000000E+01
[...]
CELL_DATA      200
SCALARS Porosity             float 1
LOOKUP_TABLE default
 4.377100E-01  4.377100E-01  4.377100E-01  4.377100E-01  4.377100E-01  4.377100E-01  4.377100E-01  4.377100E-01  4.377100E-01  4.377100E-01
 4.377100E-01  4.377100E-01  4.377100E-01  4.377100E-01  4.377100E-01  4.377100E-01  4.377100E-01  4.377100E-01  4.377100E-01  4.377100E-01
 4.377100E-01  4.377100E-01  4.377100E-01  4.377100E-01  4.377100E-01  4.377100E-01  4.377100E-01  4.377100E-01  4.377100E-01  4.377100E-01
 4.377100E-01  4.377100E-01  4.377100E-01  4.377100E-01  4.377100E-01  4.377100E-01  4.377100E-01  4.377100E-01  4.377100E-01  4.377100E-01
 4.377100E-01  4.377100E-01  4.377100E-01  4.377100E-01  4.377100E-01  4.377100E-01  4.377100E-01  4.377100E-01  4.377100E-01  4.377100E-01
 4.377100E-01  4.377100E-01  4.377100E-01  4.377100E-01  4.377100E-01  4.377100E-01  4.377100E-01  4.377100E-01  4.377100E-01  4.377100E-01
 4.377100E-01  4.377100E-01  4.377100E-01  4.377100E-01  4.377100E-01  4.377100E-01  4.377100E-01  4.377100E-01  4.377100E-01  4.377100E-01
 4.377100E-01  4.377100E-01  4.377100E-01  4.377100E-01  4.377100E-01  4.377100E-01  4.377100E-01  4.377100E-01  4.377100E-01  4.377100E-01
 4.377100E-01  4.377100E-01  4.377100E-01  4.377100E-01  4.377100E-01  4.377100E-01  4.377100E-01  4.377100E-01  4.377100E-01  4.377100E-01
 4.377100E-01  4.377100E-01  4.377100E-01  4.377100E-01  4.377100E-01  4.377100E-01  4.377100E-01  4.377100E-01  4.377100E-01  4.377100E-01
 4.377100E-01  4.377100E-01  4.377100E-01  4.377100E-01  4.377100E-01  4.377100E-01  4.377100E-01  4.377100E-01  4.377100E-01  4.377100E-01
 4.377100E-01  4.377100E-01  4.377100E-01  4.377100E-01  4.377100E-01  4.377100E-01  4.377100E-01  4.377100E-01  4.377100E-01  4.377100E-01
 4.377100E-01  4.377100E-01  4.377100E-01  4.377100E-01  4.377100E-01  4.377100E-01  4.377100E-01  4.377100E-01  4.377100E-01  4.377100E-01
 4.377100E-01  4.377100E-01  4.377100E-01  4.377100E-01  4.377100E-01  4.377100E-01  4.377100E-01  4.377100E-01  4.377100E-01  4.377100E-01
 4.377100E-01  4.377100E-01  4.377100E-01  4.377100E-01  4.377100E-01  4.377100E-01  4.377100E-01  4.377100E-01  4.377100E-01  4.377100E-01
 4.377100E-01  4.377100E-01  4.377100E-01  4.377100E-01  4.377100E-01  4.377100E-01  4.377100E-01  4.377100E-01  4.377100E-01  4.377100E-01
 4.377100E-01  4.377100E-01  4.377100E-01  4.377100E-01  4.377100E-01  4.377100E-01  4.377100E-01  4.377100E-01  4.377100E-01  4.377100E-01
 4.377100E-01  4.377100E-01  4.377100E-01  4.377100E-01  4.377100E-01  4.377100E-01  4.377100E-01  4.377100E-01  4.377100E-01  4.377100E-01
 4.377100E-01  4.377100E-01  4.377100E-01  4.377100E-01  4.377100E-01  4.377100E-01  4.377100E-01  4.377100E-01  4.377100E-01  4.377100E-01
 4.377100E-01  4.377100E-01  4.377100E-01  4.377100E-01  4.377100E-01  4.377100E-01  4.377100E-01  4.377100E-01  4.377100E-01  4.377100E-01


SCALARS Permeability         float 1
LOOKUP_TABLE default
 8.829807E-13  8.829806E-13  8.829806E-13  8.829806E-13  8.829806E-13  8.829806E-13  8.829806E-13  8.829806E-13  8.829806E-13  8.829806E-13
 8.829807E-13  8.829806E-13  8.829806E-13  8.829806E-13  8.829806E-13  8.829806E-13  8.829806E-13  8.829806E-13  8.829806E-13  8.829806E-13
 8.829807E-13  8.829806E-13  8.829806E-13  8.829806E-13  8.829806E-13  8.829806E-13  8.829806E-13  8.829806E-13  8.829806E-13  8.829806E-13
 8.829807E-13  8.829806E-13  8.829806E-13  8.829806E-13  8.829806E-13  8.829806E-13  8.829806E-13  8.829806E-13  8.829806E-13  8.829806E-13
 8.829807E-13  8.829806E-13  8.829806E-13  8.829806E-13  8.829806E-13  8.829806E-13  8.829806E-13  8.829806E-13  8.829806E-13  8.829806E-13
 8.829807E-13  8.829806E-13  8.829806E-13  8.829806E-13  8.829806E-13  8.829806E-13  8.829806E-13  8.829806E-13  8.829806E-13  8.829806E-13
 8.829806E-13  8.829807E-13  8.829806E-13  8.829806E-13  8.829806E-13  8.829806E-13  8.829806E-13  8.829806E-13  8.829806E-13  8.829806E-13
 8.829807E-13  8.829807E-13  8.829806E-13  8.829806E-13  8.829806E-13  8.829806E-13  8.829806E-13  8.829806E-13  8.829806E-13  8.829806E-13
 8.829807E-13  8.829807E-13  8.829806E-13  8.829806E-13  8.829806E-13  8.829806E-13  8.829806E-13  8.829806E-13  8.829806E-13  8.829806E-13
 8.829807E-13  8.829807E-13  8.829807E-13  8.829807E-13  8.829807E-13  8.829807E-13  8.829807E-13  8.829807E-13  8.829806E-13  8.829806E-13
 8.829807E-13  8.829807E-13  8.829807E-13  8.829807E-13  8.829807E-13  8.829807E-13  8.829807E-13  8.829807E-13  8.829807E-13  8.829806E-13
 8.829807E-13  8.829807E-13  8.829807E-13  8.829807E-13  8.829807E-13  8.829807E-13  8.829807E-13  8.829807E-13  8.829807E-13  8.829807E-13
 8.829807E-13  8.829807E-13  8.829807E-13  8.829807E-13  8.829807E-13  8.829807E-13  8.829807E-13  8.829807E-13  8.829807E-13  8.829807E-13
 8.829807E-13  8.829807E-13  8.829807E-13  8.829807E-13  8.829807E-13  8.829807E-13  8.829807E-13  8.829807E-13  8.829807E-13  8.829807E-13
 8.829807E-13  8.829807E-13  8.829807E-13  8.829807E-13  8.829807E-13  8.829807E-13  8.829807E-13  8.829807E-13  8.829807E-13  8.829807E-13
 8.829807E-13  8.829807E-13  8.829807E-13  8.829807E-13  8.829807E-13  8.829807E-13  8.829807E-13  8.829807E-13  8.829807E-13  8.829807E-13
 8.829807E-13  8.829807E-13  8.829807E-13  8.829807E-13  8.829807E-13  8.829807E-13  8.829807E-13  8.829807E-13  8.829807E-13  8.829807E-13
 8.829807E-13  8.829807E-13  8.829807E-13  8.829807E-13  8.829807E-13  8.829807E-13  8.829807E-13  8.829807E-13  8.829807E-13  8.829807E-13
 8.829807E-13  8.829807E-13  8.829807E-13  8.829807E-13  8.829807E-13  8.829807E-13  8.829807E-13  8.829807E-13  8.829807E-13  8.829807E-13
 8.829807E-13  8.829807E-13  8.829807E-13  8.829807E-13  8.829807E-13  8.829807E-13  8.829807E-13  8.829807E-13  8.829807E-13  8.829807E-13


SCALARS Liquid_Pressure      float 1
LOOKUP_TABLE default
 7.851850E+06  7.596849E+06  7.547045E+06  7.537809E+06  7.536282E+06  7.536015E+06  7.535714E+06  7.534189E+06  7.527142E+06  7.502700E+06
 7.806695E+06  7.551695E+06  7.501892E+06  7.492657E+06  7.491129E+06  7.490863E+06  7.490561E+06  7.489036E+06  7.481990E+06  7.457549E+06
 7.761545E+06  7.506542E+06  7.456741E+06  7.447505E+06  7.445978E+06  7.445711E+06  7.445410E+06  7.443885E+06  7.436839E+06  7.412398E+06
 7.716401E+06  7.461390E+06  7.411590E+06  7.402355E+06  7.400828E+06  7.400561E+06  7.400260E+06  7.398735E+06  7.391689E+06  7.367249E+06
 7.671264E+06  7.416240E+06  7.366441E+06  7.357206E+06  7.355679E+06  7.355413E+06  7.355111E+06  7.353586E+06  7.346541E+06  7.322101E+06
 7.626132E+06  7.371091E+06  7.321294E+06  7.312059E+06  7.310532E+06  7.310265E+06  7.309964E+06  7.308439E+06  7.301393E+06  7.276954E+06
 7.581006E+06  7.325943E+06  7.276147E+06  7.266913E+06  7.265385E+06  7.265119E+06  7.264817E+06  7.263293E+06  7.256247E+06  7.231809E+06
 7.535875E+06  7.280797E+06  7.231002E+06  7.221768E+06  7.220240E+06  7.219974E+06  7.219672E+06  7.218148E+06  7.211102E+06  7.186665E+06
 7.490737E+06  7.235651E+06  7.185858E+06  7.176624E+06  7.175097E+06  7.174830E+06  7.174529E+06  7.173004E+06  7.165959E+06  7.141522E+06
 7.445594E+06  7.190507E+06  7.140715E+06  7.131481E+06  7.129954E+06  7.129688E+06  7.129386E+06  7.127862E+06  7.120817E+06  7.096380E+06
 7.400445E+06  7.145364E+06  7.095574E+06  7.086340E+06  7.084813E+06  7.084546E+06  7.084245E+06  7.082720E+06  7.075676E+06  7.051240E+06
 7.355289E+06  7.100223E+06  7.050433E+06  7.041200E+06  7.039673E+06  7.039406E+06  7.039105E+06  7.037581E+06  7.030536E+06  7.006101E+06
 7.310129E+06  7.055083E+06  7.005294E+06  6.996061E+06  6.994534E+06  6.994268E+06  6.993966E+06  6.992442E+06  6.985397E+06  6.960963E+06
 7.264962E+06  7.009944E+06  6.960157E+06  6.950924E+06  6.949397E+06  6.949130E+06  6.948829E+06  6.947305E+06  6.940260E+06  6.915826E+06
 7.219789E+06  6.964806E+06  6.915020E+06  6.905787E+06  6.904261E+06  6.903994E+06  6.903693E+06  6.902168E+06  6.895124E+06  6.870691E+06
 7.174622E+06  6.919670E+06  6.869885E+06  6.860653E+06  6.859126E+06  6.858859E+06  6.858558E+06  6.857034E+06  6.849990E+06  6.825557E+06
 7.129462E+06  6.874534E+06  6.824751E+06  6.815519E+06  6.813992E+06  6.813726E+06  6.813424E+06  6.811900E+06  6.804856E+06  6.780424E+06
 7.084307E+06  6.829401E+06  6.779618E+06  6.770386E+06  6.768860E+06  6.768593E+06  6.768292E+06  6.766768E+06  6.759724E+06  6.735293E+06
 7.039158E+06  6.784268E+06  6.734487E+06  6.725255E+06  6.723729E+06  6.723462E+06  6.723161E+06  6.721637E+06  6.714593E+06  6.690162E+06
 6.994016E+06  6.739136E+06  6.689357E+06  6.680125E+06  6.678599E+06  6.678332E+06  6.678031E+06  6.676507E+06  6.669464E+06  6.645033E+06


SCALARS Temperature          float 1
LOOKUP_TABLE default
 1.500203E+02  1.500052E+02  1.500023E+02  1.500017E+02  1.500016E+02  1.500016E+02  1.500016E+02  1.500015E+02  1.500011E+02  1.499996E+02
 1.500203E+02  1.500052E+02  1.500023E+02  1.500017E+02  1.500016E+02  1.500016E+02  1.500016E+02  1.500015E+02  1.500011E+02  1.499996E+02
 1.500203E+02  1.500052E+02  1.500023E+02  1.500017E+02  1.500016E+02  1.500016E+02  1.500016E+02  1.500015E+02  1.500011E+02  1.499996E+02
 1.500203E+02  1.500052E+02  1.500023E+02  1.500017E+02  1.500016E+02  1.500016E+02  1.500016E+02  1.500015E+02  1.500011E+02  1.499996E+02
 1.500203E+02  1.500052E+02  1.500023E+02  1.500017E+02  1.500016E+02  1.500016E+02  1.500016E+02  1.500015E+02  1.500011E+02  1.499996E+02
 1.500203E+02  1.500052E+02  1.500023E+02  1.500017E+02  1.500016E+02  1.500016E+02  1.500016E+02  1.500015E+02  1.500011E+02  1.499996E+02
 1.500203E+02  1.500052E+02  1.500023E+02  1.500017E+02  1.500016E+02  1.500016E+02  1.500016E+02  1.500015E+02  1.500011E+02  1.499996E+02
 1.500203E+02  1.500052E+02  1.500023E+02  1.500017E+02  1.500016E+02  1.500016E+02  1.500016E+02  1.500015E+02  1.500011E+02  1.499996E+02
 1.500203E+02  1.500052E+02  1.500023E+02  1.500017E+02  1.500016E+02  1.500016E+02  1.500016E+02  1.500015E+02  1.500011E+02  1.499996E+02
 1.500203E+02  1.500052E+02  1.500023E+02  1.500017E+02  1.500016E+02  1.500016E+02  1.500016E+02  1.500015E+02  1.500011E+02  1.499996E+02
 1.500203E+02  1.500052E+02  1.500023E+02  1.500017E+02  1.500016E+02  1.500016E+02  1.500016E+02  1.500015E+02  1.500011E+02  1.499997E+02
 1.500203E+02  1.500052E+02  1.500023E+02  1.500017E+02  1.500016E+02  1.500016E+02  1.500016E+02  1.500015E+02  1.500011E+02  1.499997E+02
 1.500203E+02  1.500052E+02  1.500023E+02  1.500017E+02  1.500016E+02  1.500016E+02  1.500016E+02  1.500015E+02  1.500011E+02  1.499997E+02
 1.500204E+02  1.500052E+02  1.500023E+02  1.500017E+02  1.500016E+02  1.500016E+02  1.500016E+02  1.500015E+02  1.500011E+02  1.499997E+02
 1.500204E+02  1.500052E+02  1.500023E+02  1.500017E+02  1.500016E+02  1.500016E+02  1.500016E+02  1.500015E+02  1.500011E+02  1.499997E+02
 1.500204E+02  1.500052E+02  1.500023E+02  1.500017E+02  1.500016E+02  1.500016E+02  1.500016E+02  1.500015E+02  1.500011E+02  1.499997E+02
 1.500204E+02  1.500052E+02  1.500023E+02  1.500017E+02  1.500016E+02  1.500016E+02  1.500016E+02  1.500015E+02  1.500011E+02  1.499997E+02
 1.500204E+02  1.500052E+02  1.500023E+02  1.500017E+02  1.500016E+02  1.500016E+02  1.500016E+02  1.500015E+02  1.500011E+02  1.499997E+02
 1.500204E+02  1.500052E+02  1.500023E+02  1.500017E+02  1.500016E+02  1.500016E+02  1.500016E+02  1.500015E+02  1.500011E+02  1.499997E+02
 1.500204E+02  1.500052E+02  1.500023E+02  1.500017E+02  1.500016E+02  1.500016E+02  1.500016E+02  1.500015E+02  1.500011E+02  1.499997E+02


SCALARS pH                   float 1
LOOKUP_TABLE default
 6.144125E+00  6.144102E+00  6.144098E+00  6.144097E+00  6.144097E+00  6.144097E+00  6.144097E+00  6.144096E+00  6.144096E+00  6.144094E+00
 6.144125E+00  6.144102E+00  6.144098E+00  6.144097E+00  6.144097E+00  6.144097E+00  6.144097E+00  6.144096E+00  6.144096E+00  6.144094E+00
 6.144125E+00  6.144102E+00  6.144098E+00  6.144097E+00  6.144097E+00  6.144097E+00  6.144097E+00  6.144096E+00  6.144096E+00  6.144094E+00
 6.144125E+00  6.144102E+00  6.144098E+00  6.144097E+00  6.144097E+00  6.144097E+00  6.144097E+00  6.144096E+00  6.144096E+00  6.144094E+00
 6.144125E+00  6.144102E+00  6.144098E+00  6.144097E+00  6.144097E+00  6.144097E+00  6.144097E+00  6.144096E+00  6.144096E+00  6.144094E+00
 6.144125E+00  6.144102E+00  6.144098E+00  6.144097E+00  6.144097E+00  6.144097E+00  6.144097E+00  6.144096E+00  6.144096E+00  6.144094E+00
 6.144123E+00  6.144102E+00  6.144098E+00  6.144097E+00  6.144097E+00  6.144097E+00  6.144097E+00  6.144096E+00  6.144096E+00  6.144094E+00
 6.144123E+00  6.144102E+00  6.144098E+00  6.144097E+00  6.144097E+00  6.144097E+00  6.144097E+00  6.144096E+00  6.144096E+00  6.144094E+00
 6.144123E+00  6.144102E+00  6.144098E+00  6.144097E+00  6.144097E+00  6.144097E+00  6.144097E+00  6.144096E+00  6.144096E+00  6.144094E+00
 6.144123E+00  6.144102E+00  6.144098E+00  6.144097E+00  6.144097E+00  6.144097E+00  6.144097E+00  6.144096E+00  6.144096E+00  6.144094E+00
 6.144123E+00  6.144102E+00  6.144098E+00  6.144097E+00  6.144097E+00  6.144097E+00  6.144097E+00  6.144096E+00  6.144096E+00  6.144094E+00
 6.144123E+00  6.144102E+00  6.144098E+00  6.144097E+00  6.144097E+00  6.144097E+00  6.144097E+00  6.144096E+00  6.144096E+00  6.144094E+00
 6.144123E+00  6.144102E+00  6.144098E+00  6.144097E+00  6.144097E+00  6.144097E+00  6.144097E+00  6.144096E+00  6.144096E+00  6.144094E+00
 6.144123E+00  6.144102E+00  6.144098E+00  6.144097E+00  6.144097E+00  6.144097E+00  6.144097E+00  6.144097E+00  6.144096E+00  6.144094E+00
 6.144125E+00  6.144102E+00  6.144098E+00  6.144097E+00  6.144097E+00  6.144097E+00  6.144097E+00  6.144097E+00  6.144096E+00  6.144094E+00
 6.144125E+00  6.144102E+00  6.144098E+00  6.144097E+00  6.144097E+00  6.144097E+00  6.144097E+00  6.144097E+00  6.144096E+00  6.144094E+00
 6.144125E+00  6.144102E+00  6.144098E+00  6.144097E+00  6.144097E+00  6.144097E+00  6.144097E+00  6.144097E+00  6.144096E+00  6.144094E+00
 6.144125E+00  6.144102E+00  6.144098E+00  6.144097E+00  6.144097E+00  6.144097E+00  6.144097E+00  6.144097E+00  6.144096E+00  6.144094E+00
 6.144125E+00  6.144102E+00  6.144098E+00  6.144097E+00  6.144097E+00  6.144097E+00  6.144097E+00  6.144097E+00  6.144096E+00  6.144094E+00
 6.144125E+00  6.144102E+00  6.144098E+00  6.144097E+00  6.144097E+00  6.144097E+00  6.144097E+00  6.144097E+00  6.144096E+00  6.144094E+00


SCALARS Total_H+             float 1
LOOKUP_TABLE default
-3.060071E-03 -3.060609E-03 -3.060713E-03 -3.060732E-03 -3.060736E-03 -3.060736E-03 -3.060737E-03 -3.060740E-03 -3.060755E-03 -3.060806E-03
-3.060070E-03 -3.060608E-03 -3.060713E-03 -3.060732E-03 -3.060736E-03 -3.060736E-03 -3.060737E-03 -3.060740E-03 -3.060755E-03 -3.060806E-03
-3.060070E-03 -3.060608E-03 -3.060713E-03 -3.060732E-03 -3.060735E-03 -3.060736E-03 -3.060737E-03 -3.060740E-03 -3.060755E-03 -3.060806E-03
-3.060070E-03 -3.060608E-03 -3.060713E-03 -3.060732E-03 -3.060735E-03 -3.060736E-03 -3.060737E-03 -3.060740E-03 -3.060754E-03 -3.060806E-03
-3.060070E-03 -3.060608E-03 -3.060713E-03 -3.060732E-03 -3.060735E-03 -3.060736E-03 -3.060736E-03 -3.060740E-03 -3.060754E-03 -3.060806E-03
-3.060070E-03 -3.060608E-03 -3.060713E-03 -3.060732E-03 -3.060735E-03 -3.060736E-03 -3.060736E-03 -3.060740E-03 -3.060754E-03 -3.060806E-03
-3.060045E-03 -3.060608E-03 -3.060713E-03 -3.060732E-03 -3.060735E-03 -3.060736E-03 -3.060736E-03 -3.060739E-03 -3.060754E-03 -3.060806E-03
-3.060045E-03 -3.060608E-03 -3.060713E-03 -3.060732E-03 -3.060735E-03 -3.060736E-03 -3.060736E-03 -3.060739E-03 -3.060754E-03 -3.060806E-03
-3.060044E-03 -3.060608E-03 -3.060712E-03 -3.060732E-03 -3.060735E-03 -3.060735E-03 -3.060736E-03 -3.060739E-03 -3.060754E-03 -3.060806E-03
-3.060044E-03 -3.060608E-03 -3.060712E-03 -3.060732E-03 -3.060735E-03 -3.060735E-03 -3.060736E-03 -3.060739E-03 -3.060754E-03 -3.060806E-03
-3.060044E-03 -3.060608E-03 -3.060712E-03 -3.060732E-03 -3.060735E-03 -3.060735E-03 -3.060736E-03 -3.060739E-03 -3.060754E-03 -3.060806E-03
-3.060044E-03 -3.060607E-03 -3.060712E-03 -3.060732E-03 -3.060735E-03 -3.060735E-03 -3.060736E-03 -3.060739E-03 -3.060754E-03 -3.060806E-03
-3.060044E-03 -3.060607E-03 -3.060712E-03 -3.060731E-03 -3.060735E-03 -3.060735E-03 -3.060736E-03 -3.060739E-03 -3.060754E-03 -3.060806E-03
-3.060044E-03 -3.060607E-03 -3.060712E-03 -3.060731E-03 -3.060735E-03 -3.060735E-03 -3.060736E-03 -3.060739E-03 -3.060754E-03 -3.060805E-03
-3.060068E-03 -3.060607E-03 -3.060712E-03 -3.060731E-03 -3.060734E-03 -3.060735E-03 -3.060736E-03 -3.060739E-03 -3.060754E-03 -3.060805E-03
-3.060068E-03 -3.060607E-03 -3.060712E-03 -3.060731E-03 -3.060734E-03 -3.060735E-03 -3.060736E-03 -3.060739E-03 -3.060754E-03 -3.060805E-03
-3.060068E-03 -3.060607E-03 -3.060712E-03 -3.060731E-03 -3.060734E-03 -3.060735E-03 -3.060735E-03 -3.060739E-03 -3.060753E-03 -3.060805E-03
-3.060068E-03 -3.060607E-03 -3.060712E-03 -3.060731E-03 -3.060734E-03 -3.060735E-03 -3.060735E-03 -3.060739E-03 -3.060753E-03 -3.060805E-03
-3.060067E-03 -3.060607E-03 -3.060712E-03 -3.060731E-03 -3.060734E-03 -3.060735E-03 -3.060735E-03 -3.060738E-03 -3.060753E-03 -3.060805E-03
-3.060067E-03 -3.060607E-03 -3.060712E-03 -3.060731E-03 -3.060734E-03 -3.060735E-03 -3.060735E-03 -3.060738E-03 -3.060753E-03 -3.060805E-03


SCALARS Total_SiO2(aq)       float 1
LOOKUP_TABLE default
 1.039414E-02  1.039290E-02  1.039267E-02  1.039263E-02  1.039262E-02  1.039262E-02  1.039262E-02  1.039261E-02  1.039258E-02  1.039246E-02
 1.039414E-02  1.039290E-02  1.039267E-02  1.039263E-02  1.039262E-02  1.039262E-02  1.039262E-02  1.039261E-02  1.039258E-02  1.039246E-02
 1.039414E-02  1.039290E-02  1.039267E-02  1.039263E-02  1.039262E-02  1.039262E-02  1.039262E-02  1.039261E-02  1.039258E-02  1.039246E-02
 1.039414E-02  1.039290E-02  1.039267E-02  1.039263E-02  1.039262E-02  1.039262E-02  1.039262E-02  1.039261E-02  1.039258E-02  1.039246E-02
 1.039414E-02  1.039290E-02  1.039267E-02  1.039263E-02  1.039262E-02  1.039262E-02  1.039262E-02  1.039261E-02  1.039258E-02  1.039246E-02
 1.039414E-02  1.039290E-02  1.039267E-02  1.039263E-02  1.039262E-02  1.039262E-02  1.039262E-02  1.039261E-02  1.039258E-02  1.039246E-02
 1.039437E-02  1.039290E-02  1.039267E-02  1.039263E-02  1.039262E-02  1.039262E-02  1.039262E-02  1.039261E-02  1.039258E-02  1.039246E-02
 1.039437E-02  1.039290E-02  1.039267E-02  1.039263E-02  1.039262E-02  1.039262E-02  1.039262E-02  1.039261E-02  1.039258E-02  1.039246E-02
 1.039438E-02  1.039290E-02  1.039267E-02  1.039263E-02  1.039262E-02  1.039262E-02  1.039262E-02  1.039261E-02  1.039258E-02  1.039246E-02
 1.039438E-02  1.039290E-02  1.039267E-02  1.039263E-02  1.039262E-02  1.039262E-02  1.039262E-02  1.039261E-02  1.039258E-02  1.039246E-02
 1.039438E-02  1.039290E-02  1.039267E-02  1.039263E-02  1.039262E-02  1.039262E-02  1.039262E-02  1.039261E-02  1.039258E-02  1.039246E-02
 1.039438E-02  1.039290E-02  1.039267E-02  1.039263E-02  1.039262E-02  1.039262E-02  1.039262E-02  1.039261E-02  1.039258E-02  1.039246E-02
 1.039438E-02  1.039290E-02  1.039267E-02  1.039263E-02  1.039262E-02  1.039262E-02  1.039262E-02  1.039261E-02  1.039258E-02  1.039246E-02
 1.039438E-02  1.039290E-02  1.039267E-02  1.039263E-02  1.039262E-02  1.039262E-02  1.039262E-02  1.039261E-02  1.039258E-02  1.039246E-02
 1.039415E-02  1.039290E-02  1.039267E-02  1.039263E-02  1.039262E-02  1.039262E-02  1.039262E-02  1.039261E-02  1.039258E-02  1.039246E-02
 1.039415E-02  1.039290E-02  1.039267E-02  1.039263E-02  1.039262E-02  1.039262E-02  1.039262E-02  1.039261E-02  1.039258E-02  1.039246E-02
 1.039415E-02  1.039290E-02  1.039267E-02  1.039263E-02  1.039262E-02  1.039262E-02  1.039262E-02  1.039261E-02  1.039258E-02  1.039246E-02
 1.039415E-02  1.039290E-02  1.039267E-02  1.039263E-02  1.039262E-02  1.039262E-02  1.039262E-02  1.039261E-02  1.039258E-02  1.039246E-02
 1.039415E-02  1.039290E-02  1.039267E-02  1.039263E-02  1.039262E-02  1.039262E-02  1.039262E-02  1.039261E-02  1.039258E-02  1.039246E-02