# vtk DataFile Version 2.0
PFLOTRAN output
ASCII
DATASET UNSTRUCTURED_GRID
POINTS         4242 float
 0.000000E+00  0.000000E+00  0.000000E+00
 2.000000E+02  0.000000E+00  0.000000E+00
 4.000000E+02  0.000000E+00  0.000000E+00
 6.000000E+02  0.000000E+00  0.000000E+00
 8.000000E+02  0.000000E+00  0.000000E+00
 1.000000E+03  0.000000E+00  0.000000E+00
 1.200000E+03  0.000000E+00  0.000000E+00
 1.400000E+03  0.000000E+00  0.000000E+00
 1.600000E+03  0.000000E+00  0.000000E+00
 1.800000E+03  0.000000E+00  0.000000E+00
 2.000000E+03  0.000000E+00  0.000000E+00
 2.200000E+03  0.000000E+00  0.000000E+00
 2.400000E+03  0.000000E+00  0.000000E+00
 2.600000E+03  0.000000E+00  0.000000E+00
 2.800000E+03  0.000000E+00  0.000000E+00
 3.000000E+03  0.000000E+00  0.000000E+00
 3.200000E+03  0.000000E+00  0.000000E+00
 3.400000E+03  0.000000E+00  0.000000E+00
 3.600000E+03  0.000000E+00  0.000000E+00
 3.800000E+03  0.000000E+00  0.000000E+00
 4.000000E+03  0.000000E+00  0.000000E+00
 4.200000E+03  0.000000E+00  0.000000E+00
 4.400000E+03  0.000000E+00  0.000000E+00
 4.600000E+03  0.000000E+00  0.000000E+00
 4.800000E+03  0.000000E+00  0.000000E+00
 5.000000E+03  0.000000E+00  0.000000E+00
 5.200000E+03  0.000000E+00  0.000000E+00
 5.400000E+03  0.000000E+00  0.000000E+00
 5.600000E+03  0.000000E+00  0.000000E+00
 5.800000E+03  0.000000E+00  0.000000E+00
 6.000000E+03  0.000000E+00  0.000000E+00
 6.200000E+03  0.000000E+00  0.000000E+00
 6.400000E+03  0.000000E+00  0.000000E+00
 6.600000E+03  0.000000E+00  0.000000E+00
 6.800000E+03  0.000000E+00  0.000000E+00
 7.000000E+03  0.000000E+00  0.000000E+00
 7.200000E+03  0.000000E+00  0.000000E+00
 7.400000E+03  0.000000E+00  0.000000E+00
 7.600000E+03  0.000000E+00  0.000000E+00
 7.800000E+03  0.000000E+00  0.000000E+00
 8.000000E+03  0.000000E+00  0.000000E+00
 8.200000E+03  0.000000E+00  0.000000E+00
 8.400000E+03  0.000000E+00  0.000000E+00
 8.600000E+03  0.000000E+00  0.000000E+00
 8.800000E+03  0.000000E+00  0.000000E+00
 9.000000E+03  0.000000E+00  0.000000E+00
 9.200000E+03  0.000000E+00  0.000000E+00
 9.400000E+03  0.000000E+00  0.000000E+00
 9.600000E+03  0.000000E+00  0.000000E+00
 9.800000E+03  0.000000E+00  0.000000E+00
 1.000000E+04  0.000000E+00  0.000000E+00
 1.020000E+04  0.000000E+00  0.000000E+00
 1.040000E+04  0.000000E+00  0.000000E+00
 1.060000E+04  0.000000E+00  0.000000E+00
 1.080000E+04  0.000000E+00  0.000000E+00
 1.100000E+04  0.000000E+00  0.000000E+00
 1.120000E+04  0.000000E+00  0.000000E+00
 1.140000E+04  0.000000E+00  0.000000E+00
 1.160000E+04  0.000000E+00  0.000000E+00
 1.180000E+04  0.000000E+00  0.000000E+00
 1.200000E+04  0.000000E+00  0.000000E+00
 1.220000E+04  0.000000E+00  0.000000E+00
 1.240000E+04  0.000000E+00  0.000000E+00
 1.260000E+04  0.000000E+00  0.000000E+00
 1.280000E+04  0.000000E+00  0.000000E+00
 1.300000E+04  0.000000E+00  0.000000E+00
 1.320000E+04  0.000000E+00  0.000000E+00
 1.340000E+04  0.000000E+00  0.000000E+00
 1.360000E+04  0.000000E+00  0.000000E+00
 1.380000E+04  0.000000E+00  0.000000E+00
 1.400000E+04  0.000000E+00  0.000000E+00
 1.420000E+04  0.000000E+00  0.000000E+00
 1.440000E+04  0.000000E+00  0.000000E+00
 1.460000E+04  0.000000E+00  0.000000E+00
 1.480000E+04  0.000000E+00  0.000000E+00
 1.500000E+04  0.000000E+00  0.000000E+00
 1.520000E+04  0.000000E+00  0.000000E+00
 1.540000E+04  0.000000E+00  0.000000E+00
 1.560000E+04  0.000000E+00  0.000000E+00
 1.580000E+04  0.000000E+00  0.000000E+00
 1.600000E+04  0.000000E+00  0.000000E+00
 1.620000E+04  0.000000E+00  0.000000E+00
 1.640000E+04  0.000000E+00  0.000000E+00
 1.660000E+04  0.000000E+00  0.000000E+00
 1.680000E+04  0.000000E+00  0.000000E+00
 1.700000E+04  0.000000E+00  0.000000E+00
 1.720000E+04  0.000000E+00  0.000000E+00
 1.740000E+04  0.000000E+00  0.000000E+00
 1.760000E+04  0.000000E+00  0.000000E+00
 1.780000E+04  0.000000E+00  0.000000E+00
 1.800000E+04  0.000000E+00  0.000000E+00
 1.820000E+04  0.000000E+00  0.000000E+00
 1.840000E+04  0.000000E+00  0.000000E+00
 1.860000E+04  0.000000E+00  0.000000E+00
 1.880000E+04  0.000000E+00  0.000000E+00
 1.900000E+04  0.000000E+00  0.000000E+00
 1.920000E+04  0.000000E+00  0.000000E+00
 1.940000E+04  0.000000E+00  0.000000E+00
 1.960000E+04  0.000000E+00  0.000000E+00
 1.980000E+04  0.000000E+00  0.000000E+00
 2.000000E+04  0.000000E+00  0.000000E+00
 0.000000E+00  1.000000E+00  0.000000E+00
 2.000000E+02  1.000000E+00  0.000000E+00
 4.000000E+02  1.000000E+00  0.000000E+00
 6.000000E+02  1.000000E+00  0.000000E+00
 8.000000E+02  1.000000E+00  0.000000E+00
 1.000000E+03  1.000000E+00  0.000000E+00
 1.200000E+03  1.000000E+00  0.000000E+00
 1.400000E+03  1.000000E+00  0.000000E+00
 1.600000E+03  1.000000E+00  0.000000E+00
 1.800000E+03  1.000000E+00  0.000000E+00
 2.000000E+03  1.000000E+00  0.000000E+00
 2.200000E+03  1.000000E+00  0.000000E+00
 2.400000E+03  1.000000E+00  0.000000E+00
 2.600000E+03  1.000000E+00  0.000000E+00
 2.800000E+03  1.000000E+00  0.000000E+00
 3.000000E+03  1.000000E+00  0.000000E+00
 3.200000E+03  1.000000E+00  0.000000E+00
 3.400000E+03  1.000000E+00  0.000000E+00
 3.600000E+03  1.000000E+00  0.000000E+00
 3.800000E+03  1.000000E+00  0.000000E+00
 4.000000E+03  1.000000E+00  0.000000E+00
 4.200000E+03  1.000000E+00  0.000000E+00
 4.400000E+03  1.000000E+00  0.000000E+00
 4.600000E+03  1.000000E+00  0.000000E+00
 4.800000E+03  1.000000E+00  0.000000E+00
 5.000000E+03  1.000000E+00  0.000000E+00
 5.200000E+03  1.000000E+00  0.000000E+00
 5.400000E+03  1.000000E+00  0.000000E+00
 5.600000E+03  1.000000E+00  0.000000E+00
 5.800000E+03  1.000000E+00  0.000000E+00
 6.000000E+03  1.000000E+00  0.000000E+00
 6.200000E+03  1.000000E+00  0.000000E+00
 6.400000E+03  1.000000E+00  0.000000E+00
 6.600000E+03  1.000000E+00  0.000000E+00
 6.800000E+03  1.000000E+00  0.000000E+00
 7.000000E+03  1.000000E+00  0.000000E+00
 7.200000E+03  1.000000E+00  0.000000E+00
 7.400000E+03  1.000000E+00  0.000000E+00
 7.600000E+03  1.000000E+00  0.000000E+00
 7.800000E+03  1.000000E+00  0.000000E+00
 8.000000E+03  1.000000E+00  0.000000E+00
 8.200000E+03  1.000000E+00  0.000000E+00
 8.400000E+03  1.000000E+00  0.000000E+00
 8.600000E+03  1.000000E+00  0.000000E+00
 8.800000E+03  1.000000E+00  0.000000E+00
 9.000000E+03  1.000000E+00  0.000000E+00
 9.200000E+03  1.000000E+00  0.000000E+00
 9.400000E+03  1.000000E+00  0.000000E+00
 9.600000E+03  1.000000E+00  0.000000E+00
 9.800000E+03  1.000000E+00  0.000000E+00
 1.000000E+04  1.000000E+00  0.000000E+00
 1.020000E+04  1.000000E+00  0.000000E+00
 1.040000E+04  1.000000E+00  0.000000E+00
 1.060000E+04  1.000000E+00  0.000000E+00
 1.080000E+04  1.000000E+00  0.000000E+00
 1.100000E+04  1.000000E+00  0.000000E+00
 1.120000E+04  1.000000E+00  0.000000E+00
 1.140000E+04  1.000000E+00  0.000000E+00
 1.160000E+04  1.000000E+00  0.000000E+00
 1.180000E+04  1.000000E+00  0.000000E+00
 1.200000E+04  1.000000E+00  0.000000E+00
 1.220000E+04  1.000000E+00  0.000000E+00
 1.240000E+04  1.000000E+00  0.000000E+00
 1.260000E+04  1.000000E+00  0.000000E+00
 1.280000E+04  1.000000E+00  0.000000E+00
 1.300000E+04  1.000000E+00  0.000000E+00
 1.320000E+04  1.000000E+00  0.000000E+00
 1.340000E+04  1.000000E+00  0.000000E+00
 1.360000E+04  1.000000E+00  0.000000E+00
 1.380000E+04  1.000000E+00  0.000000E+00
 1.400000E+04  1.000000E+00  0.000000E+00
 1.420000E+04  1.000000E+00  0.000000E+00
 1.440000E+04  1.000000E+00  0.000000E+00
 1.460000E+04  1.000000E+00  0.000000E+00
 1.480000E+04  1.000000E+00  0.000000E+00
 1.500000E+04  1.000000E+00  0.000000E+00
 1.520000E+04  1.000000E+00  0.000000E+00
 1.540000E+04  1.000000E+00  0.000000E+00
 1.560000E+04  1.000000E+00  0.000000E+00
 1.580000E+04  1.000000E+00  0.000000E+00
 1.600000E+04  1.000000E+00  0.000000E+00
 1.620000E+04  1.000000E+00  0.000000E+00
 1.640000E+04  1.000000E+00  0.000000E+00
 1.660000E+04  1.000000E+00  0.000000E+00
 1.680000E+04  1.000000E+00  0.000000E+00
 1.700000E+04  1.000000E+00  0.000000E+00
 1.720000E+04  1.000000E+00  0.000000E+00
 1.740000E+04  1.000000E+00  0.000000E+00
 1.760000E+04  1.000000E+00  0.000000E+00
 1.780000E+04  1.000000E+00  0.000000E+00
 1.800000E+04  1.000000E+00  0.000000E+00
 1.820000E+04  1.000000E+00  0.000000E+00
 1.840000E+04  1.000000E+00  0.000000E+00
 1.860000E+04  1.000000E+00  0.000000E+00
 1.880000E+04  1.000000E+00  0.000000E+00
 1.900000E+04  1.000000E+00  0.000000E+00
 1.920000E+04  1.000000E+00  0.000000E+00
 1.940000E+04  1.000000E+00  0.000000E+00
 1.960000E+04  1.000000E+00  0.000000E+00
 1.980000E+04  1.000000E+00  0.000000E+00
 2.000000E+04  1.000000E+00  0.000000E+00
 0.000000E+00  0.000000E+00  1.500000E+01
 2.000000E+02  0.000000E+00  1.500000E+01
 4.000000E+02  0.000000E+00  1.500000E+01
 6.000000E+02  0.000000E+00  1.500000E+01
 8.000000E+02  0.000000E+00  1.500000E+01
 1.000000E+03  0.000000E+00  1.500000E+01
 1.200000E+03  0.000000E+00  1.500000E+01
 1.400000E+03  0.000000E+00  1.500000E+01
 1.600000E+03  0.000000E+00  1.500000E+01
 1.800000E+03  0.000000E+00  1.500000E+01
 2.000000E+03  0.000000E+00  1.500000E+01
 2.200000E+03  0.000000E+00  1.500000E+01
 2.400000E+03  0.000000E+00  1.500000E+01
 2.600000E+03  0.000000E+00  1.500000E+01
 2.800000E+03  0.000000E+00  1.500000E+01
 3.000000E+03  0.000000E+00  1.500000E+01
 3.200000E+03  0.000000E+00  1.500000E+01
 3.400000E+03  0.000000E+00  1.500000E+01
 3.600000E+03  0.000000E+00  1.500000E+01
 3.800000E+03  0.000000E+00  1.500000E+01
 4.000000E+03  0.000000E+00  1.500000E+01
 4.200000E+03  0.000000E+00  1.500000E+01
 4.400000E+03  0.000000E+00  1.500000E+01
 4.600000E+03  0.000000E+00  1.500000E+01
 4.800000E+03  0.000000E+00  1.500000E+01
 5.000000E+03  0.000000E+00  1.500000E+01
 5.200000E+03  0.000000E+00  1.500000E+01
 5.400000E+03  0.000000E+00  1.500000E+01
 5.600000E+03  0.000000E+00  1.500000E+01
 5.800000E+03  0.000000E+00  1.500000E+01
 6.000000E+03  0.000000E+00  1.500000E+01
 6.200000E+03  0.000000E+00  1.500000E+01
 6.400000E+03  0.000000E+00  1.500000E+01
[...]
CELL_DATA     2000
SCALARS Vlx                  float 1
LOOKUP_TABLE default
 3.760772E+01  3.669838E+01  3.212778E+01  2.600706E+01  2.108204E+01  1.748290E+01  1.485721E+01  1.289386E+01  1.138183E+01  1.018514E+01
 9.215552E+00  8.414347E+00  7.741265E+00  7.167877E+00  6.673570E+00  6.243041E+00  5.864696E+00  5.529589E+00  5.230709E+00  4.962482E+00
 4.720424E+00  4.500882E+00  4.300854E+00  4.117850E+00  3.949784E+00  3.794900E+00  3.651705E+00  3.518924E+00  3.395461E+00  3.280368E+00
 3.172822E+00  3.072105E+00  2.977585E+00  2.888708E+00  2.804983E+00  2.725975E+00  2.651296E+00  2.580600E+00  2.513577E+00  2.449947E+00
 2.389459E+00  2.331887E+00  2.277023E+00  2.224682E+00  2.174694E+00  2.126902E+00  2.081167E+00  2.037357E+00  1.995353E+00  1.955047E+00
 1.916337E+00  1.879130E+00  1.843341E+00  1.808889E+00  1.775702E+00  1.743711E+00  1.712852E+00  1.683067E+00  1.654299E+00  1.626499E+00
 1.599618E+00  1.573611E+00  1.548437E+00  1.524055E+00  1.500429E+00  1.477525E+00  1.455309E+00  1.433752E+00  1.412824E+00  1.392499E+00
 1.372750E+00  1.353553E+00  1.334886E+00  1.316727E+00  1.299056E+00  1.281852E+00  1.265099E+00  1.248777E+00  1.232872E+00  1.217367E+00
 1.202247E+00  1.187498E+00  1.173107E+00  1.159060E+00  1.145346E+00  1.131952E+00  1.118869E+00  1.106084E+00  1.093588E+00  1.081372E+00
 1.069426E+00  1.057741E+00  1.046309E+00  1.035122E+00  1.024173E+00  1.013456E+00  1.002966E+00  9.926994E-01  9.826615E-01  9.728890E-01
 4.052848E+01  3.830999E+01  3.266792E+01  2.615943E+01  2.112393E+01  1.749504E+01  1.486132E+01  1.289571E+01  1.138300E+01  1.018606E+01
 9.216342E+00  8.415058E+00  7.741915E+00  7.168479E+00  6.674129E+00  6.243564E+00  5.865187E+00  5.530052E+00  5.231147E+00  4.962898E+00
 4.720819E+00  4.501259E+00  4.301214E+00  4.118195E+00  3.950115E+00  3.795218E+00  3.652011E+00  3.519219E+00  3.395745E+00  3.280643E+00
 3.173088E+00  3.072362E+00  2.977834E+00  2.888950E+00  2.805218E+00  2.726203E+00  2.651518E+00  2.580816E+00  2.513787E+00  2.450152E+00
 2.389659E+00  2.332082E+00  2.277214E+00  2.224868E+00  2.174876E+00  2.127080E+00  2.081341E+00  2.037527E+00  1.995520E+00  1.955210E+00
 1.916497E+00  1.879287E+00  1.843495E+00  1.809041E+00  1.775851E+00  1.743857E+00  1.712995E+00  1.683207E+00  1.654438E+00  1.626635E+00
 1.599752E+00  1.573743E+00  1.548566E+00  1.524182E+00  1.500555E+00  1.477648E+00  1.455431E+00  1.433872E+00  1.412942E+00  1.392615E+00
 1.372864E+00  1.353666E+00  1.334998E+00  1.316837E+00  1.299164E+00  1.281959E+00  1.265205E+00  1.248882E+00  1.232975E+00  1.217469E+00
 1.202347E+00  1.187597E+00  1.173205E+00  1.159157E+00  1.145441E+00  1.132047E+00  1.118962E+00  1.106177E+00  1.093680E+00  1.081463E+00
 1.069515E+00  1.057829E+00  1.046396E+00  1.035209E+00  1.024259E+00  1.013541E+00  1.003049E+00  9.927813E-01  9.827401E-01  9.729415E-01
 4.673731E+01  4.164619E+01  3.373088E+01  2.645140E+01  2.120245E+01  1.751685E+01  1.486800E+01  1.289826E+01  1.138435E+01  1.018702E+01
 9.217145E+00  8.415772E+00  7.742567E+00  7.169080E+00  6.674689E+00  6.244087E+00  5.865678E+00  5.530515E+00  5.231585E+00  4.963313E+00
 4.721214E+00  4.501635E+00  4.301574E+00  4.118539E+00  3.950446E+00  3.795536E+00  3.652317E+00  3.519513E+00  3.396030E+00  3.280917E+00
 3.173353E+00  3.072619E+00  2.978083E+00  2.889191E+00  2.805452E+00  2.726431E+00  2.651740E+00  2.581032E+00  2.513998E+00  2.450357E+00
 2.389859E+00  2.332277E+00  2.277404E+00  2.225055E+00  2.175058E+00  2.127258E+00  2.081515E+00  2.037697E+00  1.995687E+00  1.955374E+00
 1.916657E+00  1.879444E+00  1.843649E+00  1.809192E+00  1.775999E+00  1.744003E+00  1.713139E+00  1.683348E+00  1.654576E+00  1.626771E+00
 1.599886E+00  1.573874E+00  1.548696E+00  1.524310E+00  1.500680E+00  1.477772E+00  1.455553E+00  1.433992E+00  1.413060E+00  1.392731E+00
 1.372979E+00  1.353779E+00  1.335109E+00  1.316947E+00  1.299273E+00  1.282067E+00  1.265310E+00  1.248986E+00  1.233078E+00  1.217570E+00
 1.202448E+00  1.187697E+00  1.173303E+00  1.159254E+00  1.145537E+00  1.132142E+00  1.119056E+00  1.106269E+00  1.093771E+00  1.081553E+00
 1.069605E+00  1.057918E+00  1.046484E+00  1.035295E+00  1.024344E+00  1.013625E+00  1.003132E+00  9.928622E-01  9.828164E-01  9.729983E-01
 5.702483E+01  4.694474E+01  3.527992E+01  2.686122E+01  2.131073E+01  1.754640E+01  1.487675E+01  1.290137E+01  1.138586E+01  1.018803E+01
 9.217960E+00  8.416489E+00  7.743219E+00  7.169681E+00  6.675248E+00  6.244610E+00  5.866169E+00  5.530978E+00  5.232023E+00  4.963729E+00
 4.721609E+00  4.502012E+00  4.301934E+00  4.118884E+00  3.950776E+00  3.795853E+00  3.652622E+00  3.519808E+00  3.396314E+00  3.281192E+00
 3.173619E+00  3.072876E+00  2.978332E+00  2.889433E+00  2.805687E+00  2.726659E+00  2.651962E+00  2.581248E+00  2.514208E+00  2.450562E+00
 2.390059E+00  2.332472E+00  2.277595E+00  2.225241E+00  2.175239E+00  2.127436E+00  2.081689E+00  2.037868E+00  1.995854E+00  1.955537E+00
 1.916818E+00  1.879601E+00  1.843803E+00  1.809343E+00  1.776148E+00  1.744148E+00  1.713282E+00  1.683489E+00  1.654714E+00  1.626907E+00
 1.600019E+00  1.574006E+00  1.548825E+00  1.524437E+00  1.500805E+00  1.477895E+00  1.455674E+00  1.434112E+00  1.413179E+00  1.392848E+00
 1.373094E+00  1.353893E+00  1.335221E+00  1.317057E+00  1.299381E+00  1.282174E+00  1.265416E+00  1.249091E+00  1.233181E+00  1.217672E+00
 1.202548E+00  1.187796E+00  1.173401E+00  1.159351E+00  1.145633E+00  1.132236E+00  1.119149E+00  1.106361E+00  1.093863E+00  1.081643E+00
 1.069694E+00  1.058006E+00  1.046571E+00  1.035381E+00  1.024429E+00  1.013709E+00  1.003214E+00  9.929421E-01  9.828913E-01  9.730584E-01
 7.272708E+01  5.458645E+01  3.724304E+01  2.735575E+01  2.143897E+01  1.758102E+01  1.488682E+01  1.290483E+01  1.138746E+01  1.018906E+01
 9.218782E+00  8.417208E+00  7.743871E+00  7.170283E+00  6.675807E+00  6.245133E+00  5.866660E+00  5.531441E+00  5.232460E+00  4.964144E+00
 4.722004E+00  4.502388E+00  4.302294E+00  4.119228E+00  3.951106E+00  3.796170E+00  3.652927E+00  3.520102E+00  3.396597E+00  3.281466E+00
 3.173884E+00  3.073132E+00  2.978581E+00  2.889674E+00  2.805921E+00  2.726887E+00  2.652183E+00  2.581464E+00  2.514418E+00  2.450767E+00
 2.390259E+00  2.332667E+00  2.277785E+00  2.225426E+00  2.175421E+00  2.127614E+00  2.081863E+00  2.038038E+00  1.996021E+00  1.955701E+00
 1.916978E+00  1.879758E+00  1.843957E+00  1.809494E+00  1.776296E+00  1.744294E+00  1.713425E+00  1.683629E+00  1.654853E+00  1.627043E+00
 1.600153E+00  1.574138E+00  1.548954E+00  1.524564E+00  1.500931E+00  1.478019E+00  1.455796E+00  1.434231E+00  1.413297E+00  1.392964E+00
 1.373209E+00  1.354006E+00  1.335333E+00  1.317167E+00  1.299490E+00  1.282281E+00  1.265522E+00  1.249195E+00  1.233284E+00  1.217774E+00
 1.202649E+00  1.187895E+00  1.173499E+00  1.159447E+00  1.145729E+00  1.132331E+00  1.119243E+00  1.106454E+00  1.093954E+00  1.081734E+00
 1.069783E+00  1.058094E+00  1.046658E+00  1.035468E+00  1.024515E+00  1.013793E+00  1.003296E+00  9.930214E-01  9.829652E-01  9.731208E-01
 9.593054E+01  6.512488E+01  3.948930E+01  2.789062E+01  2.157514E+01  1.761749E+01  1.489736E+01  1.290841E+01  1.138910E+01  1.019010E+01
 9.219606E+00  8.417927E+00  7.744524E+00  7.170884E+00  6.676366E+00  6.245655E+00  5.867151E+00  5.531903E+00  5.232898E+00  4.964559E+00
 4.722399E+00  4.502765E+00  4.302653E+00  4.119572E+00  3.951437E+00  3.796488E+00  3.653233E+00  3.520396E+00  3.396881E+00  3.281740E+00
 3.174149E+00  3.073389E+00  2.978830E+00  2.889916E+00  2.806156E+00  2.727115E+00  2.652405E+00  2.581679E+00  2.514628E+00  2.450971E+00
 2.390458E+00  2.332862E+00  2.277975E+00  2.225612E+00  2.175603E+00  2.127792E+00  2.082037E+00  2.038208E+00  1.996187E+00  1.955864E+00
 1.917138E+00  1.879915E+00  1.844111E+00  1.809645E+00  1.776444E+00  1.744440E+00  1.713568E+00  1.683770E+00  1.654991E+00  1.627179E+00
 1.600287E+00  1.574269E+00  1.549084E+00  1.524692E+00  1.501056E+00  1.478142E+00  1.455917E+00  1.434351E+00  1.413415E+00  1.393081E+00
 1.373323E+00  1.354119E+00  1.335444E+00  1.317277E+00  1.299599E+00  1.282388E+00  1.265627E+00  1.249299E+00  1.233387E+00  1.217876E+00
 1.202749E+00  1.187994E+00  1.173597E+00  1.159544E+00  1.145824E+00  1.132425E+00  1.119336E+00  1.106546E+00  1.094045E+00  1.081824E+00
 1.069873E+00  1.058183E+00  1.046746E+00  1.035554E+00  1.024599E+00  1.013876E+00  1.003378E+00  9.931000E-01  9.830386E-01  9.731850E-01
 1.296267E+02  7.927179E+01  4.179030E+01  2.841207E+01  2.170599E+01  1.765238E+01  1.490746E+01  1.291187E+01  1.139070E+01  1.019113E+01
 9.220428E+00  8.418646E+00  7.745176E+00  7.171485E+00  6.676925E+00  6.246178E+00  5.867642E+00  5.532366E+00  5.233335E+00  4.964974E+00
 4.722793E+00  4.503141E+00  4.303013E+00  4.119917E+00  3.951767E+00  3.796805E+00  3.653538E+00  3.520690E+00  3.397165E+00  3.282014E+00
 3.174414E+00  3.073646E+00  2.979079E+00  2.890157E+00  2.806390E+00  2.727343E+00  2.652626E+00  2.581895E+00  2.514838E+00  2.451176E+00
 2.390658E+00  2.333056E+00  2.278165E+00  2.225798E+00  2.175784E+00  2.127969E+00  2.082210E+00  2.038378E+00  1.996354E+00  1.956027E+00
 1.917298E+00  1.880072E+00  1.844265E+00  1.809796E+00  1.776593E+00  1.744585E+00  1.713711E+00  1.683911E+00  1.655129E+00  1.627315E+00
 1.600420E+00  1.574400E+00  1.549213E+00  1.524819E+00  1.501181E+00  1.478266E+00  1.456039E+00  1.434471E+00  1.413533E+00  1.393197E+00
 1.373438E+00  1.354232E+00  1.335555E+00  1.317387E+00  1.299707E+00  1.282495E+00  1.265733E+00  1.249404E+00  1.233490E+00  1.217977E+00
 1.202850E+00  1.188093E+00  1.173695E+00  1.159641E+00  1.145920E+00  1.132520E+00  1.119430E+00  1.106639E+00  1.094137E+00  1.081914E+00
 1.069962E+00  1.058271E+00  1.046833E+00  1.035640E+00  1.024684E+00  1.013960E+00  1.003459E+00  9.931782E-01  9.831116E-01  9.732506E-01
 1.517164E+02  8.912613E+01  4.376246E+01  2.886240E+01  2.181842E+01  1.768239E+01  1.491626E+01  1.291498E+01  1.139221E+01  1.019214E+01
 9.221242E+00  8.419362E+00  7.745827E+00  7.172086E+00  6.677483E+00  6.246700E+00  5.868132E+00  5.532828E+00  5.233772E+00  4.965388E+00
 4.723188E+00  4.503517E+00  4.303372E+00  4.120261E+00  3.952097E+00  3.797122E+00  3.653843E+00  3.520984E+00  3.397448E+00  3.282288E+00
 3.174679E+00  3.073902E+00  2.979327E+00  2.890398E+00  2.806624E+00  2.727570E+00  2.652848E+00  2.582110E+00  2.515048E+00  2.451380E+00
 2.390857E+00  2.333251E+00  2.278355E+00  2.225984E+00  2.175966E+00  2.128147E+00  2.082384E+00  2.038549E+00  1.996520E+00  1.956191E+00
 1.917458E+00  1.880229E+00  1.844419E+00  1.809947E+00  1.776741E+00  1.744731E+00  1.713854E+00  1.684051E+00  1.655267E+00  1.627451E+00
 1.600554E+00  1.574532E+00  1.549342E+00  1.524946E+00  1.501307E+00  1.478389E+00  1.456160E+00  1.434591E+00  1.413650E+00  1.393313E+00
 1.373553E+00  1.354345E+00  1.335667E+00  1.317497E+00  1.299815E+00  1.282602E+00  1.265839E+00  1.249508E+00  1.233593E+00  1.218079E+00
 1.202950E+00  1.188192E+00  1.173793E+00  1.159738E+00  1.146016E+00  1.132614E+00  1.119523E+00  1.106731E+00  1.094228E+00  1.082004E+00
 1.070051E+00  1.058359E+00  1.046920E+00  1.035726E+00  1.024769E+00  1.014043E+00  1.003540E+00  9.932560E-01  9.831845E-01  9.733171E-01
 1.649762E+02  9.532417E+01  4.517926E+01  2.919252E+01  2.190104E+01  1.770466E+01  1.492300E+01  1.291754E+01  1.139356E+01  1.019310E+01
 9.222044E+00  8.420075E+00  7.746477E+00  7.172686E+00  6.678041E+00  6.247222E+00  5.868622E+00  5.533290E+00  5.234209E+00  4.965803E+00
 4.723582E+00  4.503893E+00  4.303731E+00  4.120604E+00  3.952426E+00  3.797439E+00  3.654148E+00  3.521278E+00  3.397732E+00  3.282562E+00
 3.174944E+00  3.074159E+00  2.979576E+00  2.890639E+00  2.806859E+00  2.727798E+00  2.653069E+00  2.582326E+00  2.515257E+00  2.451585E+00
 2.391057E+00  2.333446E+00  2.278545E+00  2.226170E+00  2.176147E+00  2.128324E+00  2.082558E+00  2.038719E+00  1.996687E+00  1.956354E+00
 1.917618E+00  1.880386E+00  1.844573E+00  1.810098E+00  1.776889E+00  1.744876E+00  1.713997E+00  1.684192E+00  1.655405E+00  1.627586E+00
 1.600687E+00  1.574663E+00  1.549471E+00  1.525073E+00  1.501432E+00  1.478512E+00  1.456282E+00  1.434710E+00  1.413768E+00  1.393429E+00
 1.373667E+00  1.354458E+00  1.335778E+00  1.317607E+00  1.299924E+00  1.282709E+00  1.265944E+00  1.249612E+00  1.233696E+00  1.218180E+00
 1.203050E+00  1.188292E+00  1.173891E+00  1.159834E+00  1.146111E+00  1.132709E+00  1.119616E+00  1.106823E+00  1.094319E+00  1.082095E+00
 1.070140E+00  1.058447E+00  1.047007E+00  1.035812E+00  1.024854E+00  1.014126E+00  1.003621E+00  9.933336E-01  9.832572E-01  9.733842E-01
 1.711958E+02  9.831791E+01  4.591694E+01  2.936781E+01  2.194551E+01  1.771711E+01  1.492715E+01  1.291941E+01  1.139473E+01  1.019401E+01
 9.222833E+00  8.420784E+00  7.747126E+00  7.173286E+00  6.678599E+00  6.247744E+00  5.869112E+00  5.533752E+00  5.234646E+00  4.966217E+00
 4.723976E+00  4.504269E+00  4.304090E+00  4.120948E+00  3.952756E+00  3.797755E+00  3.654452E+00  3.521571E+00  3.398015E+00  3.282836E+00
 3.175209E+00  3.074415E+00  2.979824E+00  2.890880E+00  2.807093E+00  2.728025E+00  2.653290E+00  2.582541E+00  2.515467E+00  2.451789E+00
 2.391256E+00  2.333640E+00  2.278735E+00  2.226355E+00  2.176329E+00  2.128502E+00  2.082732E+00  2.038888E+00  1.996853E+00  1.956517E+00
 1.917778E+00  1.880543E+00  1.844727E+00  1.810249E+00  1.777037E+00  1.745022E+00  1.714140E+00  1.684332E+00  1.655543E+00  1.627722E+00
 1.600821E+00  1.574794E+00  1.549601E+00  1.525201E+00  1.501557E+00  1.478635E+00  1.456403E+00  1.434830E+00  1.413886E+00  1.393545E+00
 1.373782E+00  1.354571E+00  1.335890E+00  1.317717E+00  1.300032E+00  1.282816E+00  1.266050E+00  1.249716E+00  1.233799E+00  1.218282E+00
 1.203151E+00  1.188391E+00  1.173988E+00  1.159931E+00  1.146207E+00  1.132803E+00  1.119710E+00  1.106915E+00  1.094410E+00  1.082185E+00
 1.070229E+00  1.058535E+00  1.047094E+00  1.035898E+00  1.024938E+00  1.014209E+00  1.003702E+00  9.934110E-01  9.833299E-01  9.734517E-01
 1.711996E+02  9.832171E+01  4.592024E+01  2.937031E+01  2.194740E+01  1.771862E+01  1.492841E+01  1.292049E+01  1.139569E+01  1.019487E+01
 9.223605E+00  8.421488E+00  7.747774E+00  7.173885E+00  6.679157E+00  6.248265E+00  5.869602E+00  5.534214E+00  5.235083E+00  4.966632E+00
 4.724370E+00  4.504644E+00  4.304449E+00  4.121292E+00  3.953086E+00  3.798072E+00  3.654757E+00  3.521865E+00  3.398299E+00  3.283109E+00
 3.175473E+00  3.074671E+00  2.980073E+00  2.891121E+00  2.807327E+00  2.728253E+00  2.653511E+00  2.582756E+00  2.515677E+00  2.451994E+00
 2.391455E+00  2.333835E+00  2.278925E+00  2.226541E+00  2.176510E+00  2.128679E+00  2.082905E+00  2.039058E+00  1.997020E+00  1.956680E+00
 1.917937E+00  1.880700E+00  1.844880E+00  1.810400E+00  1.777185E+00  1.745167E+00  1.714283E+00  1.684472E+00  1.655681E+00  1.627858E+00
 1.600954E+00  1.574925E+00  1.549730E+00  1.525328E+00  1.501682E+00  1.478759E+00  1.456525E+00  1.434949E+00  1.414004E+00  1.393661E+00
 1.373896E+00  1.354683E+00  1.336001E+00  1.317827E+00  1.300140E+00  1.282923E+00  1.266155E+00  1.249820E+00  1.233902E+00  1.218383E+00
 1.203251E+00  1.188490E+00  1.174086E+00  1.160028E+00  1.146302E+00  1.132898E+00  1.119803E+00  1.107008E+00  1.094502E+00  1.082275E+00
 1.070318E+00  1.058623E+00  1.047181E+00  1.035984E+00  1.025023E+00  1.014292E+00  1.003782E+00  9.934883E-01  9.834025E-01  9.735192E-01
 1.649956E+02  9.534014E+01  4.519059E+01  2.920029E+01  2.190674E+01  1.770920E+01  1.492679E+01  1.292081E+01  1.139643E+01  1.019566E+01
 9.224361E+00  8.422188E+00  7.748420E+00  7.174484E+00  6.679714E+00  6.248786E+00  5.870091E+00  5.534675E+00  5.235519E+00  4.967046E+00
 4.724764E+00  4.505020E+00  4.304808E+00  4.121635E+00  3.953415E+00  3.798388E+00  3.655062E+00  3.522159E+00  3.398582E+00  3.283383E+00
 3.175738E+00  3.074928E+00  2.980321E+00  2.891362E+00  2.807560E+00  2.728480E+00  2.653732E+00  2.582971E+00  2.515886E+00  2.452198E+00
 2.391655E+00  2.334029E+00  2.279115E+00  2.226726E+00  2.176692E+00  2.128856E+00  2.083079E+00  2.039228E+00  1.997186E+00  1.956843E+00
 1.918097E+00  1.880856E+00  1.845034E+00  1.810551E+00  1.777333E+00  1.745313E+00  1.714425E+00  1.684613E+00  1.655819E+00  1.627993E+00
 1.601087E+00  1.575057E+00  1.549859E+00  1.525455E+00  1.501807E+00  1.478882E+00  1.456646E+00  1.435069E+00  1.414122E+00  1.393777E+00
 1.374010E+00  1.354796E+00  1.336112E+00  1.317936E+00  1.300249E+00  1.283030E+00  1.266261E+00  1.249924E+00  1.234004E+00  1.218485E+00
 1.203351E+00  1.188589E+00  1.174184E+00  1.160124E+00  1.146398E+00  1.132992E+00  1.119896E+00  1.107100E+00  1.094593E+00  1.082365E+00
 1.070407E+00  1.058711E+00  1.047268E+00  1.036069E+00  1.025107E+00  1.014375E+00  1.003863E+00  9.935657E-01  9.834751E-01  9.735867E-01
 1.517490E+02  8.915288E+01  4.378133E+01  2.887525E+01  2.182789E+01  1.768994E+01  1.492257E+01  1.292043E+01  1.139699E+01  1.019641E+01
 9.225102E+00  8.422883E+00  7.749064E+00  7.175082E+00  6.680271E+00  6.249307E+00  5.870581E+00  5.535136E+00  5.235956E+00  4.967460E+00
 4.725158E+00  4.505395E+00  4.305167E+00  4.121979E+00  3.953744E+00  3.798705E+00  3.655366E+00  3.522452E+00  3.398865E+00  3.283656E+00
 3.176002E+00  3.075184E+00  2.980569E+00  2.891603E+00  2.807794E+00  2.728707E+00  2.653953E+00  2.583187E+00  2.516096E+00  2.452402E+00
 2.391854E+00  2.334223E+00  2.279305E+00  2.226911E+00  2.176873E+00  2.129034E+00  2.083252E+00  2.039398E+00  1.997352E+00  1.957006E+00
 1.918257E+00  1.881013E+00  1.845187E+00  1.810702E+00  1.777481E+00  1.745458E+00  1.714568E+00  1.684753E+00  1.655957E+00  1.628129E+00
 1.601221E+00  1.575188E+00  1.549988E+00  1.525582E+00  1.501932E+00  1.479005E+00  1.456767E+00  1.435188E+00  1.414239E+00  1.393893E+00
 1.374125E+00  1.354909E+00  1.336223E+00  1.318046E+00  1.300357E+00  1.283136E+00  1.266366E+00  1.250028E+00  1.234107E+00  1.218586E+00
 1.203451E+00  1.188687E+00  1.174282E+00  1.160221E+00  1.146493E+00  1.133086E+00  1.119989E+00  1.107192E+00  1.094684E+00  1.082455E+00
 1.070496E+00  1.058799E+00  1.047355E+00  1.036155E+00  1.025192E+00  1.014457E+00  1.003944E+00  9.936431E-01  9.835477E-01  9.736536E-01
 1.296681E+02  7.930708E+01  4.181591E+01  2.842974E+01  2.171915E+01  1.766292E+01  1.491629E+01  1.291949E+01  1.139740E+01  1.019711E+01
 9.225832E+00  8.423575E+00  7.749708E+00  7.175679E+00  6.680828E+00  6.249828E+00  5.871070E+00  5.535598E+00  5.236392E+00  4.967873E+00
 4.725551E+00  4.505770E+00  4.305525E+00  4.122322E+00  3.954074E+00  3.799021E+00  3.655670E+00  3.522745E+00  3.399148E+00  3.283930E+00
 3.176267E+00  3.075440E+00  2.980817E+00  2.891844E+00  2.808028E+00  2.728934E+00  2.654174E+00  2.583402E+00  2.516305E+00  2.452606E+00
 2.392053E+00  2.334418E+00  2.279495E+00  2.227097E+00  2.177054E+00  2.129211E+00  2.083425E+00  2.039568E+00  1.997519E+00  1.957168E+00
 1.918416E+00  1.881169E+00  1.845341E+00  1.810852E+00  1.777629E+00  1.745603E+00  1.714711E+00  1.684893E+00  1.656095E+00  1.628264E+00
 1.601354E+00  1.575319E+00  1.550117E+00  1.525709E+00  1.502057E+00  1.479128E+00  1.456888E+00  1.435308E+00  1.414357E+00  1.394009E+00
 1.374239E+00  1.355022E+00  1.336335E+00  1.318156E+00  1.300465E+00  1.283243E+00  1.266471E+00  1.250132E+00  1.234210E+00  1.218688E+00
 1.203551E+00  1.188786E+00  1.174379E+00  1.160317E+00  1.146588E+00  1.133180E+00  1.120083E+00  1.107284E+00  1.094775E+00  1.082545E+00
 1.070585E+00  1.058887E+00  1.047442E+00  1.036241E+00  1.025276E+00  1.014540E+00  1.004025E+00  9.937207E-01  9.836203E-01  9.737200E-01
 9.599052E+01  6.517178E+01  3.952127E+01  2.791281E+01  2.159190E+01  1.763099E+01  1.490870E+01  1.291820E+01  1.139771E+01  1.019779E+01
 9.226554E+00  8.424265E+00  7.750350E+00  7.176276E+00  6.681385E+00  6.250349E+00  5.871559E+00  5.536059E+00  5.236828E+00  4.968287E+00