# vtk DataFile Version 2.0
PFLOTRAN output
ASCII
DATASET UNSTRUCTURED_GRID
POINTS          462 float
 0.000000E+00  0.000000E+00  0.000000E+00
 1.000000E+01  0.000000E+00  0.000000E+00
 2.000000E+01  0.000000E+00  0.000000E+00
 3.000000E+01  0.000000E+00  0.000000E+00
 4.000000E+01  0.000000E+00  0.000000E+00
 5.000000E+01  0.000000E+00  0.000000E+00
 6.000000E+01  0.000000E+00  0.000000E+00
 7.000000E+01  0.000000E+00  0.000000E+00
 8.000000E+01  0.000000E+00  0.000000E+00
 9.000000E+01  0.000000E+00  0.000000E+00
 1.000000E+02  0.000000E+00  0.000000E+00
 0.000000E+00  1.000000E+00  0.000000E+00
 1.000000E+01  1.000000E+00  0.000000E+00
 2.000000E+01  1.000000E+00  0.000000E+00
 3.000000E+01  1.000000E+00  0.000000E+00
 4.000000E+01  1.000000E+00  0.000000E+00
 5.000000E+01  1.000000E+00  0.000000E+00
 6.000000E+01  1.000000E+00  0.000000E+00
 7.000000E+01  1.000000E+00  0.000000E+00
 8.000000E+01  1.000000E+00  0.000000E+00
 9.000000E+01  1.000000E+00  0.000000E+00
 1.000000E+02  1.000000E+00  0.000000E+00
 0.000000E+00  0.000000E+00  5.000000E+00
 1.000000E+01  0.000000E+00  5.000000E+00
 2.000000E+01  0.000000E+00  5.000000E+00
 3.000000E+01  0.000000E+00  5.000000E+00
 4.000000E+01  0.000000E+00  5.000000E+00
 5.000000E+01  0.000000E+00  5.000000E+00
 6.000000E+01  0.000000E+00  5.000000E+00
 7.000000E+01  0.000000E+00  5.000000E+00
 8.000000E+01  0.000000E+00  5.000000E+00
 9.000000E+01  0.000000E+00  5.000000E+00
 1.000000E+02  0.000000E+00  5.000000E+00
 0.000000E+00  1.000000E+00  5.000000E+00
 1.000000E+01  1.000000E+00  5.000000E+00
 2.000000E+01  1.000000E+00  5.000000E+00
 3.000000E+01  1.000000E+00  5.000000E+00
 4.000000E+01  1.000000E+00  5.000000E+00
 5.000000E+01  1.000000E+00  5.000000E+00
 6.000000E+01  1.000000E+00  5.000000E+00
 7.000000E+01  1.000000E+00  5.000000E+00
 8.000000E+01  1.000000E+00  5.000000E+00
 9.000000E+01  1.000000E+00  5.000000E+00
 1.000000E+02  1.000000E+00  5.000000E+00
 0.000000E+00  0.000000E+00  1.000000E+01
 1.000000E+01  0.000000E+00  1.000000E+01
 2.000000E+01  0.000000E+00  1.000000E+01
 3.000000E+01  0.000000E+00  1.000000E+01
 4.000000E+01  0.000000E+00  1.000000E+01
 5.000000E+01  0.000000E+00  1.000000E+01
 6.000000E+01  0.000000E+00  1.000000E+01
 7.000000E+01  0.000000E+00  1.000000E+01
 8.000000E+01  0.000000E+00  1.000000E+01
 9.000000E+01  0.000000E+00  1.000000E+01
 1.000000E+02  0.000000E+00  1.000000E+01
 0.000000E+00  1.000000E+00  1.000000E+01
 1.000000E+01  1.000000E+00  1.000000E+01
 2.000000E+01  1.000000E+00  1.000000E+01
 3.000000E+01  1.000000E+00  1.000000E+01
 4.000000E+01  1.000000E+00  1.000000E+01
 5.000000E+01  1.000000E+00  1.000000E+01
 6.000000E+01  1.000000E+00  1.000000E+01
 7.000000E+01  1.000000E+00  1.000000E+01
 8.000000E+01  1.000000E+00  1.000000E+01
 9.000000E+01  1.000000E+00  1.000000E+01
 1.000000E+02  1.000000E+00  1.000000E+01
 0.000000E+00  0.000000E+00  1.500000E+01
 1.000000E+01  0.000000E+00  1.500000E+01
 2.000000E+01  0.000000E+00  1.500000E+01
 3.000000E+01  0.000000E+00  1.500000E+01
 4.000000E+01  0.000000E+00  1.500000E+01
 5.000000E+01  0.000000E+00  1.500000E+01
 6.000000E+01  0.000000E+00  1.500000E+01
 7.000000E+01  0.000000E+00  1.500000E+01
 8.000000E+01  0.000000E+00  1.500000E+01
 9.000000E+01  0.000000E+00  1.500000E+01
 1.000000E+02  0.000000E+00  1.500000E+01
 0.000000E+00  1.000000E+00  1.500000E+01
 1.000000E+01  1.000000E+00  1.500000E+01
 2.000000E+01  1.000000E+00  1.500000E+01
 3.000000E+01  1.000000E+00  1.500000E+01
 4.000000E+01  1.000000E+00  1.500000E+01
 5.000000E+01  1.000000E+00  1.500000E+01
 6.000000E+01  1.000000E+00  1.500000E+01
 7.000000E+01  1.000000E+00  1.500000E+01
 8.000000E+01  1.000000E+00  1.500000E+01
 9.000000E+01  1.000000E+00  1.500000E+01
 1.000000E+02  1.000000E+00  1.500000E+01
 0.000000E+00  0.000000E+00  2.000000E+01
 1.000000E+01  0.000000E+00  2.000000E+01
 2.000000E+01  0.000000E+00  2.000000E+01
 3.000000E+01  0.000000E+00  2.000000E+01
 4.000000E+01  0.000000E+00  2.000000E+01
 5.000000E+01  0.000000E+00  2.000000E+01
 6.000000E+01  0.000000E+00  2.000000E+01
 7.000000E+01  0.000000E+00  2.000000E+01
 8.000000E+01  0.000000E+00  2.000000E+01
 9.000000E+01  0.000000E+00  2.000000E+01
 1.000000E+02  0.000000E+00  2.000000E+01
 0.000000E+00  1.000000E+00  2.000000E+01
 1.000000E+01  1.000000E+00  2.000000E+01
 2.000000E+01  1.000000E+00  2.000000E+01
 3.000000E+01  1.000000E+00  2.000000E+01
 4.000000E+01  1.000000E+00  2.000000E+01
 5.000000E+01  1.000000E+00  2.000000E+01
 6.000000E+01  1.000000E+00  2.000000E+01
 7.000000E+01  1.000000E+00  2.000000E+01
 8.000000E+01  1.000000E+00  2.000000E+01
 9.000000E+01  1.000000E+00  2.000000E+01
 1.000000E+02  1.000000E+00  2.000000E+01
 0.000000E+00  0.000000E+00  2.500000E+01
 1.000000E+01  0.000000E+00  2.500000E+01
 2.000000E+01  0.000000E+00  2.500000E+01
 3.000000E+01  0.000000E+00  2.500000E+01
 4.000000E+01  0.000000E+00  2.500000E+01
 5.000000E+01  0.000000E+00  2.500000E+01
 6.000000E+01  0.000000E+00  2.500000E+01
 7.000000E+01  0.000000E+00  2.500000E+01
 8.000000E+01  0.000000E+00  2.500000E+01
 9.000000E+01  0.000000E+00  2.500000E+01
 1.000000E+02  0.000000E+00  2.500000E+01
 0.000000E+00  1.000000E+00  2.500000E+01
 1.000000E+01  1.000000E+00  2.500000E+01
 2.000000E+01  1.000000E+00  2.500000E+01
 3.000000E+01  1.000000E+00  2.500000E+01
 4.000000E+01  1.000000E+00  2.500000E+01
 5.000000E+01  1.000000E+00  2.500000E+01
 6.000000E+01  1.000000E+00  2.500000E+01
 7.000000E+01  1.000000E+00  2.500000E+01
 8.000000E+01  1.000000E+00  2.500000E+01
 9.000000E+01  1.000000E+00  2.500000E+01
 1.000000E+02  1.000000E+00  2.500000E+01
 0.000000E+00  0.000000E+00  3.000000E+01
 1.000000E+01  0.000000E+00  3.000000E+01
 2.000000E+01  0.000000E+00  3.000000E+01
 3.000000E+01  0.000000E+00  3.000000E+01
 4.000000E+01  0.000000E+00  3.000000E+01
 5.000000E+01  0.000000E+00  3.000000E+01
 6.000000E+01  0.000000E+00  3.000000E+01
 7.000000E+01  0.000000E+00  3.000000E+01
 8.000000E+01  0.000000E+00  3.000000E+01
 9.000000E+01  0.000000E+00  3.000000E+01
 1.000000E+02  0.000000E+00  3.000000E+01
 0.000000E+00  1.000000E+00  3.000000E+01
 1.000000E+01  1.000000E+00  3.000000E+01
 2.000000E+01  1.000000E+00  3.000000E+01
 3.000000E+01  1.000000E+00  3.000000E+01
 4.000000E+01  1.000000E+00  3.000000E+01
 5.000000E+01  1.000000E+00  3.000000E+01
 6.000000E+01  1.000000E+00  3.000000E+01
 7.000000E+01  1.000000E+00  3.000000E+01
 8.000000E+01  1.000000E+00  3.000000E+01
 9.000000E+01  1.000000E+00  3.000000E+01
 1.000000E+02  1.000000E+00  3.000000E+01
 0.000000E+00  0.000000E+00  3.500000E+01
 1.000000E+01  0.000000E+00  3.500000E+01
 2.000000E+01  0.000000E+00  3.500000E+01
 3.000000E+01  0.000000E+00  3.500000E+01
 4.000000E+01  0.000000E+00  3.500000E+01
 5.000000E+01  0.000000E+00  3.500000E+01
 6.000000E+01  0.000000E+00  3.500000E+01
 7.000000E+01  0.000000E+00  3.500000E+01
 8.000000E+01  0.000000E+00  3.500000E+01
 9.000000E+01  0.000000E+00  3.500000E+01
 1.000000E+02  0.000000E+00  3.500000E+01
 0.000000E+00  1.000000E+00  3.500000E+01
 1.000000E+01  1.000000E+00  3.500000E+01
 2.000000E+01  1.000000E+00  3.500000E+01
 3.000000E+01  1.000000E+00  3.500000E+01
 4.000000E+01  1.000000E+00  3.500000E+01
 5.000000E+01  1.000000E+00  3.500000E+01
 6.000000E+01  1.000000E+00  3.500000E+01
 7.000000E+01  1.000000E+00  3.500000E+01
 8.000000E+01  1.000000E+00  3.500000E+01
 9.000000E+01  1.000000E+00  3.500000E+01
 1.000000E+02  1.000000E+00  3.500000E+01
 0.000000E+00  0.000000E+00  4.000000E+01
 1.000000E+01  0.000000E+00  4.000000E+01
 2.000000E+01  0.000000E+00  4.000000E+01
 3.000000E+01  0.000000E+00  4.000000E+01
 4.000000E+01  0.000000E+00  4.000000E+01
 5.000000E+01  0.000000E+00  4.000000E+01
 6.000000E+01  0.000000E+00  4.000000E+01
 7.000000E+01  0.000000E+00  4.000000E+01
 8.000000E+01  0.000000E+00  4.000000E+01
 9.000000E+01  0.000000E+00  4.000000E+01
 1.000000E+02  0.000000E+00  4.000000E+01
 0.000000E+00  1.000000E+00  4.000000E+01
 1.000000E+01  1.000000E+00  4.000000E+01
 2.000000E+01  1.000000E+00  4.000000E+01
 3.000000E+01  1.000000E+00  4.000000E+01
 4.000000E+01  1.000000E+00  4.000000E+01
 5.000000E+01  1.000000E+00  4.000000E+01
 6.000000E+01  1.000000E+00  4.000000E+01
 7.000000E+01  1.000000E+00  4.000000E+01
 8.000000E+01  1.000000E+00  4.000000E+01
 9.000000E+01  1.000000E+00  4.000000E+01
 1.000000E+02  1.000000E+00  4.000000E+01
 0.000000E+00  0.000000E+00  4.500000E+01
 1.000000E+01  0.000000E+00  4.500000E+01
 2.000000E+01  0.000000E+00  4.500000E+01
 3.000000E+01  0.000000E+00  4.500000E+01
 4.000000E+01  0.000000E+00  4.500000E+01
 5.000000E+01  0.000000E+00  4.500000E+01
 6.000000E+01  0.000000E+00  4.500000E+01
 7.000000E+01  0.000000E+00  4.500000E+01
 8.000000E+01  0.000000E+00  4.500000E+01
 9.000000E+01  0.000000E+00  4.500000E+01
 1.000000E+02  0.000000E+00  4.500000E+01
 0.000000E+00  1.000000E+00  4.500000E+01
 1.000000E+01  1.000000E+00  4.500000E+01
 2.000000E+01  1.000000E+00  4.500000E+01
 3.000000E+01  1.000000E+00  4.500000E+01
 4.000000E+01  1.000000E+00  4.500000E+01
 5.000000E+01  1.000000E+00  4.500000E+01
 6.000000E+01  1.000000E+00  4.500000E+01
 7.000000E+01  1.000000E+00  4.500000E+01
 8.000000E+01  1.000000E+00  4.500000E+01
 9.000000E+01  1.000000E+00  4.500000E+01
 1.000000E+02  1.000000E+00  4.500000E+01
 0.000000E+00  0.000000E+00  5.000000E+01
 1.000000E+01  0.000000E+00  5.000000E+01
 2.000000E+01  0.000000E+00  5.000000E+01
 3.000000E+01  0.000000E+00  5.000000E+01
 4.000000E+01  0.000000E+00  5.000000E+01
 5.000000E+01  0.000000E+00  5.000000E+01
 6.000000E+01  0.000000E+00  5.000000E+01
 7.000000E+01  0.000000E+00  5.000000E+01
 8.000000E+01  0.000000E+00  5.000000E+01
 9.000000E+01  0.000000E+00  5.000000E+01
 1.000000E+02  0.000000E+00  5.000000E+01
 0.000000E+00  1.000000E+00  5.000000E+01
 1.000000E+01  1.000000E+00  5.000000E+01
 2.000000E+01  1.000000E+00  5.000000E+01
 3.000000E+01  1.000000E+00  5.000000E+01
[...]
CELL_DATA      200
SCALARS Porosity             float 1
LOOKUP_TABLE default
 4.377021E-01  4.377088E-01  4.377098E-01  4.377100E-01  4.377100E-01  4.377099E-01  4.377099E-01  4.377099E-01  4.377099E-01  4.377098E-01
 4.376383E-01  4.376985E-01  4.377085E-01  4.377098E-01  4.377099E-01  4.377099E-01  4.377099E-01  4.377099E-01  4.377099E-01  4.377098E-01
 4.373695E-01  4.376469E-01  4.377010E-01  4.377090E-01  4.377099E-01  4.377099E-01  4.377099E-01  4.377099E-01  4.377099E-01  4.377098E-01
 4.366470E-01  4.374729E-01  4.376720E-01  4.377053E-01  4.377095E-01  4.377099E-01  4.377099E-01  4.377099E-01  4.377099E-01  4.377098E-01
 4.354949E-01  4.370545E-01  4.375897E-01  4.376939E-01  4.377083E-01  4.377098E-01  4.377099E-01  4.377099E-01  4.377099E-01  4.377098E-01
 4.355941E-01  4.363775E-01  4.374174E-01  4.376674E-01  4.377053E-01  4.377095E-01  4.377099E-01  4.377099E-01  4.377098E-01  4.377097E-01
 4.402055E-01  4.359853E-01  4.371791E-01  4.376251E-01  4.377001E-01  4.377090E-01  4.377098E-01  4.377099E-01  4.377098E-01  4.377097E-01
 4.402072E-01  4.358698E-01  4.370588E-01  4.375967E-01  4.376961E-01  4.377086E-01  4.377098E-01  4.377099E-01  4.377098E-01  4.377097E-01
 4.402084E-01  4.358222E-01  4.369891E-01  4.375774E-01  4.376932E-01  4.377083E-01  4.377098E-01  4.377098E-01  4.377098E-01  4.377097E-01
 4.402088E-01  4.358030E-01  4.369566E-01  4.375675E-01  4.376915E-01  4.377081E-01  4.377098E-01  4.377098E-01  4.377098E-01  4.377097E-01
 4.402082E-01  4.358028E-01  4.369566E-01  4.375675E-01  4.376916E-01  4.377082E-01  4.377098E-01  4.377098E-01  4.377098E-01  4.377097E-01
 4.402069E-01  4.358217E-01  4.369891E-01  4.375775E-01  4.376932E-01  4.377083E-01  4.377098E-01  4.377099E-01  4.377098E-01  4.377097E-01
 4.402048E-01  4.358692E-01  4.370589E-01  4.375968E-01  4.376962E-01  4.377087E-01  4.377098E-01  4.377099E-01  4.377098E-01  4.377097E-01
 4.402023E-01  4.359847E-01  4.371793E-01  4.376252E-01  4.377002E-01  4.377091E-01  4.377098E-01  4.377099E-01  4.377098E-01  4.377097E-01
 4.355924E-01  4.363777E-01  4.374177E-01  4.376676E-01  4.377054E-01  4.377096E-01  4.377099E-01  4.377099E-01  4.377098E-01  4.377097E-01
 4.354951E-01  4.370551E-01  4.375901E-01  4.376941E-01  4.377084E-01  4.377098E-01  4.377099E-01  4.377099E-01  4.377098E-01  4.377097E-01
 4.366479E-01  4.374735E-01  4.376724E-01  4.377055E-01  4.377096E-01  4.377099E-01  4.377099E-01  4.377099E-01  4.377098E-01  4.377097E-01
 4.373703E-01  4.376473E-01  4.377013E-01  4.377091E-01  4.377099E-01  4.377099E-01  4.377099E-01  4.377099E-01  4.377098E-01  4.377098E-01
 4.376388E-01  4.376988E-01  4.377086E-01  4.377099E-01  4.377099E-01  4.377099E-01  4.377099E-01  4.377099E-01  4.377099E-01  4.377098E-01
 4.377022E-01  4.377089E-01  4.377099E-01  4.377100E-01  4.377099E-01  4.377099E-01  4.377099E-01  4.377099E-01  4.377099E-01  4.377098E-01


SCALARS Permeability         float 1
LOOKUP_TABLE default
 8.829406E-13  8.829747E-13  8.829798E-13  8.829804E-13  8.829804E-13  8.829802E-13  8.829801E-13  8.829800E-13  8.829800E-13  8.829797E-13
 8.826182E-13  8.829224E-13  8.829729E-13  8.829796E-13  8.829802E-13  8.829802E-13  8.829801E-13  8.829800E-13  8.829799E-13  8.829796E-13
 8.812603E-13  8.826614E-13  8.829351E-13  8.829753E-13  8.829798E-13  8.829801E-13  8.829800E-13  8.829799E-13  8.829799E-13  8.829795E-13
 8.776171E-13  8.817826E-13  8.827887E-13  8.829570E-13  8.829780E-13  8.829800E-13  8.829800E-13  8.829799E-13  8.829798E-13  8.829794E-13
 8.718263E-13  8.796707E-13  8.823725E-13  8.828994E-13  8.829719E-13  8.829795E-13  8.829799E-13  8.829799E-13  8.829798E-13  8.829793E-13
 8.723243E-13  8.762604E-13  8.815020E-13  8.827651E-13  8.829567E-13  8.829781E-13  8.829798E-13  8.829798E-13  8.829798E-13  8.829792E-13
 8.956488E-13  8.742884E-13  8.802995E-13  8.825512E-13  8.829306E-13  8.829757E-13  8.829797E-13  8.829798E-13  8.829797E-13  8.829791E-13
 8.956576E-13  8.737083E-13  8.796925E-13  8.824079E-13  8.829104E-13  8.829736E-13  8.829795E-13  8.829798E-13  8.829797E-13  8.829791E-13
 8.956637E-13  8.734690E-13  8.793411E-13  8.823104E-13  8.828954E-13  8.829720E-13  8.829794E-13  8.829798E-13  8.829797E-13  8.829790E-13
 8.956653E-13  8.733725E-13  8.791772E-13  8.822604E-13  8.828873E-13  8.829711E-13  8.829793E-13  8.829798E-13  8.829797E-13  8.829790E-13
 8.956626E-13  8.733717E-13  8.791773E-13  8.822606E-13  8.828873E-13  8.829712E-13  8.829793E-13  8.829798E-13  8.829797E-13  8.829790E-13
 8.956559E-13  8.734669E-13  8.793413E-13  8.823108E-13  8.828956E-13  8.829721E-13  8.829794E-13  8.829798E-13  8.829797E-13  8.829790E-13
 8.956451E-13  8.737052E-13  8.796930E-13  8.824085E-13  8.829108E-13  8.829738E-13  8.829795E-13  8.829798E-13  8.829797E-13  8.829790E-13
 8.956325E-13  8.742855E-13  8.803005E-13  8.825521E-13  8.829311E-13  8.829758E-13  8.829797E-13  8.829798E-13  8.829797E-13  8.829791E-13
 8.723156E-13  8.762616E-13  8.815038E-13  8.827661E-13  8.829571E-13  8.829783E-13  8.829799E-13  8.829798E-13  8.829797E-13  8.829791E-13
 8.718272E-13  8.796738E-13  8.823745E-13  8.829004E-13  8.829723E-13  8.829796E-13  8.829800E-13  8.829798E-13  8.829797E-13  8.829792E-13
 8.776215E-13  8.817858E-13  8.827904E-13  8.829578E-13  8.829784E-13  8.829801E-13  8.829800E-13  8.829798E-13  8.829797E-13  8.829792E-13
 8.812643E-13  8.826639E-13  8.829364E-13  8.829758E-13  8.829800E-13  8.829801E-13  8.829800E-13  8.829798E-13  8.829798E-13  8.829793E-13
 8.826205E-13  8.829238E-13  8.829736E-13  8.829799E-13  8.829803E-13  8.829801E-13  8.829799E-13  8.829798E-13  8.829798E-13  8.829794E-13
 8.829413E-13  8.829751E-13  8.829799E-13  8.829804E-13  8.829802E-13  8.829801E-13  8.829799E-13  8.829799E-13  8.829798E-13  8.829795E-13


SCALARS Liquid_Pressure      float 1
LOOKUP_TABLE default
 8.009772E+06  7.964844E+06  7.898025E+06  7.825681E+06  7.756025E+06  7.692175E+06  7.634770E+06  7.583428E+06  7.537445E+06  7.496093E+06
 7.987078E+06  7.934469E+06  7.861207E+06  7.784927E+06  7.713131E+06  7.648171E+06  7.590198E+06  7.538564E+06  7.492424E+06  7.450980E+06
 7.990735E+06  7.919754E+06  7.832624E+06  7.748342E+06  7.672330E+06  7.605217E+06  7.546151E+06  7.493958E+06  7.447520E+06  7.405898E+06
 8.030127E+06  7.922294E+06  7.811908E+06  7.715419E+06  7.633283E+06  7.563121E+06  7.502529E+06  7.449558E+06  7.402709E+06  7.360843E+06
 8.124214E+06  7.943829E+06  7.798088E+06  7.685292E+06  7.595477E+06  7.521608E+06  7.459188E+06  7.405295E+06  7.357959E+06  7.315805E+06
 8.309349E+06  7.984347E+06  7.789046E+06  7.656672E+06  7.558236E+06  7.480333E+06  7.415955E+06  7.361082E+06  7.313231E+06  7.270774E+06
 8.652366E+06  8.036419E+06  7.780855E+06  7.627843E+06  7.520768E+06  7.438914E+06  7.372642E+06  7.316828E+06  7.268485E+06  7.225739E+06
 8.824203E+06  8.070319E+06  7.767746E+06  7.596878E+06  7.482254E+06  7.396970E+06  7.329066E+06  7.272446E+06  7.223682E+06  7.180689E+06
 8.897850E+06  8.078412E+06  7.745712E+06  7.562126E+06  7.441972E+06  7.354167E+06  7.285068E+06  7.227858E+06  7.178787E+06  7.135614E+06
 8.905555E+06  8.059691E+06  7.712571E+06  7.522456E+06  7.399395E+06  7.310260E+06  7.240529E+06  7.183009E+06  7.133777E+06  7.090510E+06
 8.860337E+06  8.014515E+06  7.667411E+06  7.477305E+06  7.354249E+06  7.265117E+06  7.195389E+06  7.137869E+06  7.088638E+06  7.045370E+06
 8.762199E+06  7.942885E+06  7.610233E+06  7.426673E+06  7.306534E+06  7.218739E+06  7.149646E+06  7.092439E+06  7.043370E+06  7.000197E+06
 8.598145E+06  7.844451E+06  7.541952E+06  7.371124E+06  7.256525E+06  7.171257E+06  7.103363E+06  7.046748E+06  6.997986E+06  6.954992E+06
 8.335955E+06  7.720228E+06  7.464754E+06  7.311792E+06  7.204749E+06  7.122916E+06  7.056659E+06  7.000852E+06  6.952512E+06  6.909763E+06
 7.902698E+06  7.577855E+06  7.382645E+06  7.250327E+06  7.151930E+06  7.074052E+06  7.009691E+06  6.954828E+06  6.906980E+06  6.864520E+06
 7.627327E+06  7.447054E+06  7.301396E+06  7.188658E+06  7.098885E+06  7.025045E+06  6.962645E+06  6.908764E+06  6.861431E+06  6.819273E+06
 7.442997E+06  7.335242E+06  7.224929E+06  7.128499E+06  7.046408E+06  6.976279E+06  6.915709E+06  6.862751E+06  6.815906E+06  6.774033E+06
 7.313351E+06  7.242427E+06  7.155363E+06  7.071139E+06  6.995174E+06  6.928096E+06  6.869055E+06  6.816876E+06  6.770442E+06  6.728812E+06
 7.219429E+06  7.166866E+06  7.093664E+06  7.017442E+06  6.945695E+06  6.880773E+06  6.822827E+06  6.771210E+06  6.725074E+06  6.683618E+06
 7.151843E+06  7.106958E+06  7.040198E+06  6.967914E+06  6.898310E+06  6.834502E+06  6.777127E+06  6.725803E+06  6.679824E+06  6.638459E+06


SCALARS Temperature          float 1
LOOKUP_TABLE default
 1.500985E+02  1.501065E+02  1.501171E+02  1.501281E+02  1.501383E+02  1.501466E+02  1.501511E+02  1.501492E+02  1.501389E+02  1.501205E+02
 1.501019E+02  1.501117E+02  1.501237E+02  1.501357E+02  1.501466E+02  1.501560E+02  1.501627E+02  1.501638E+02  1.501558E+02  1.501374E+02
 1.501017E+02  1.501146E+02  1.501291E+02  1.501426E+02  1.501544E+02  1.501645E+02  1.501723E+02  1.501753E+02  1.501696E+02  1.501521E+02
 1.500967E+02  1.501151E+02  1.501335E+02  1.501492E+02  1.501622E+02  1.501730E+02  1.501816E+02  1.501860E+02  1.501821E+02  1.501658E+02
 1.500844E+02  1.501133E+02  1.501373E+02  1.501558E+02  1.501703E+02  1.501819E+02  1.501911E+02  1.501965E+02  1.501941E+02  1.501789E+02
 1.500590E+02  1.501097E+02  1.501414E+02  1.501632E+02  1.501792E+02  1.501915E+02  1.502012E+02  1.502073E+02  1.502061E+02  1.501918E+02
 1.500095E+02  1.501064E+02  1.501473E+02  1.501722E+02  1.501893E+02  1.502022E+02  1.502121E+02  1.502187E+02  1.502182E+02  1.502046E+02
 1.500030E+02  1.501138E+02  1.501579E+02  1.501834E+02  1.502007E+02  1.502135E+02  1.502234E+02  1.502301E+02  1.502301E+02  1.502169E+02
 1.500009E+02  1.501190E+02  1.501659E+02  1.501922E+02  1.502097E+02  1.502225E+02  1.502325E+02  1.502394E+02  1.502397E+02  1.502267E+02
 1.500008E+02  1.501227E+02  1.501715E+02  1.501986E+02  1.502165E+02  1.502295E+02  1.502395E+02  1.502465E+02  1.502469E+02  1.502338E+02
 1.500008E+02  1.501227E+02  1.501715E+02  1.501986E+02  1.502165E+02  1.502295E+02  1.502396E+02  1.502465E+02  1.502470E+02  1.502340E+02
 1.500023E+02  1.501223E+02  1.501706E+02  1.501979E+02  1.502161E+02  1.502293E+02  1.502395E+02  1.502465E+02  1.502468E+02  1.502332E+02
 1.500060E+02  1.501207E+02  1.501679E+02  1.501953E+02  1.502138E+02  1.502273E+02  1.502377E+02  1.502446E+02  1.502444E+02  1.502301E+02
 1.500146E+02  1.501179E+02  1.501633E+02  1.501909E+02  1.502097E+02  1.502236E+02  1.502341E+02  1.502408E+02  1.502399E+02  1.502246E+02
 1.500773E+02  1.501322E+02  1.501671E+02  1.501912E+02  1.502087E+02  1.502219E+02  1.502320E+02  1.502382E+02  1.502361E+02  1.502191E+02
 1.501159E+02  1.501479E+02  1.501743E+02  1.501945E+02  1.502101E+02  1.502224E+02  1.502319E+02  1.502371E+02  1.502332E+02  1.502139E+02
 1.501414E+02  1.501622E+02  1.501824E+02  1.501993E+02  1.502132E+02  1.502245E+02  1.502332E+02  1.502369E+02  1.502304E+02  1.502081E+02
 1.501596E+02  1.501744E+02  1.501903E+02  1.502046E+02  1.502170E+02  1.502274E+02  1.502350E+02  1.502366E+02  1.502266E+02  1.502006E+02
 1.501731E+02  1.501844E+02  1.501973E+02  1.502098E+02  1.502211E+02  1.502305E+02  1.502364E+02  1.502344E+02  1.502195E+02  1.501892E+02
 1.501828E+02  1.501918E+02  1.502029E+02  1.502141E+02  1.502243E+02  1.502318E+02  1.502336E+02  1.502251E+02  1.502034E+02  1.501695E+02


SCALARS pH                   float 1
LOOKUP_TABLE default
 6.145671E+00  6.145699E+00  6.145731E+00  6.145766E+00  6.145801E+00  6.145835E+00  6.145866E+00  6.145888E+00  6.145893E+00  6.145847E+00
 6.145647E+00  6.145678E+00  6.145709E+00  6.145742E+00  6.145777E+00  6.145813E+00  6.145847E+00  6.145875E+00  6.145889E+00  6.145851E+00
 6.145607E+00  6.145665E+00  6.145699E+00  6.145733E+00  6.145767E+00  6.145803E+00  6.145839E+00  6.145870E+00  6.145888E+00  6.145854E+00
 6.145221E+00  6.145639E+00  6.145692E+00  6.145728E+00  6.145763E+00  6.145799E+00  6.145835E+00  6.145868E+00  6.145890E+00  6.145856E+00
 6.140846E+00  6.145460E+00  6.145680E+00  6.145725E+00  6.145762E+00  6.145798E+00  6.145835E+00  6.145869E+00  6.145894E+00  6.145860E+00
 6.106368E+00  6.143879E+00  6.145629E+00  6.145725E+00  6.145765E+00  6.145802E+00  6.145840E+00  6.145875E+00  6.145901E+00  6.145866E+00
 5.939585E+00  6.134765E+00  6.145348E+00  6.145725E+00  6.145774E+00  6.145811E+00  6.145849E+00  6.145885E+00  6.145912E+00  6.145876E+00
 5.939558E+00  6.132477E+00  6.145229E+00  6.145738E+00  6.145789E+00  6.145826E+00  6.145863E+00  6.145899E+00  6.145927E+00  6.145888E+00
 5.939553E+00  6.131394E+00  6.145160E+00  6.145749E+00  6.145803E+00  6.145839E+00  6.145876E+00  6.145912E+00  6.145940E+00  6.145899E+00
 5.939554E+00  6.130955E+00  6.145129E+00  6.145757E+00  6.145812E+00  6.145848E+00  6.145885E+00  6.145920E+00  6.145949E+00  6.145907E+00
 5.939551E+00  6.130950E+00  6.145125E+00  6.145754E+00  6.145810E+00  6.145847E+00  6.145884E+00  6.145920E+00  6.145948E+00  6.145906E+00
 5.939552E+00  6.131386E+00  6.145155E+00  6.145748E+00  6.145803E+00  6.145841E+00  6.145879E+00  6.145915E+00  6.145943E+00  6.145900E+00
 5.939562E+00  6.132467E+00  6.145225E+00  6.145738E+00  6.145793E+00  6.145832E+00  6.145870E+00  6.145907E+00  6.145934E+00  6.145891E+00
 5.939596E+00  6.134756E+00  6.145346E+00  6.145730E+00  6.145782E+00  6.145822E+00  6.145861E+00  6.145898E+00  6.145924E+00  6.145881E+00
 6.106382E+00  6.143881E+00  6.145636E+00  6.145738E+00  6.145781E+00  6.145821E+00  6.145860E+00  6.145895E+00  6.145920E+00  6.145875E+00
 6.140860E+00  6.145474E+00  6.145700E+00  6.145749E+00  6.145789E+00  6.145827E+00  6.145865E+00  6.145899E+00  6.145920E+00  6.145873E+00
 6.145245E+00  6.145667E+00  6.145725E+00  6.145764E+00  6.145801E+00  6.145839E+00  6.145875E+00  6.145907E+00  6.145924E+00  6.145873E+00
 6.145643E+00  6.145707E+00  6.145745E+00  6.145781E+00  6.145817E+00  6.145854E+00  6.145889E+00  6.145917E+00  6.145929E+00  6.145872E+00
 6.145697E+00  6.145732E+00  6.145767E+00  6.145802E+00  6.145838E+00  6.145874E+00  6.145906E+00  6.145928E+00  6.145930E+00  6.145866E+00
 6.145730E+00  6.145762E+00  6.145796E+00  6.145831E+00  6.145866E+00  6.145899E+00  6.145925E+00  6.145936E+00  6.145924E+00  6.145848E+00


SCALARS Total_H+             float 1
LOOKUP_TABLE default
-3.046772E-03 -3.045556E-03 -3.044086E-03 -3.042410E-03 -3.040570E-03 -3.038606E-03 -3.036585E-03 -3.034610E-03 -3.032790E-03 -3.031391E-03
-3.048004E-03 -3.046871E-03 -3.045485E-03 -3.043869E-03 -3.042056E-03 -3.040073E-03 -3.037975E-03 -3.035872E-03 -3.033908E-03 -3.032397E-03
-3.048747E-03 -3.047561E-03 -3.046184E-03 -3.044611E-03 -3.042835E-03 -3.040868E-03 -3.038748E-03 -3.036577E-03 -3.034517E-03 -3.032943E-03
-3.047950E-03 -3.048113E-03 -3.046647E-03 -3.045072E-03 -3.043323E-03 -3.041377E-03 -3.039256E-03 -3.037047E-03 -3.034919E-03 -3.033300E-03
-3.024856E-03 -3.048004E-03 -3.046990E-03 -3.045358E-03 -3.043615E-03 -3.041687E-03 -3.039573E-03 -3.037343E-03 -3.035167E-03 -3.033520E-03
-2.833821E-03 -3.040098E-03 -3.047071E-03 -3.045494E-03 -3.043737E-03 -3.041823E-03 -3.039719E-03 -3.037481E-03 -3.035272E-03 -3.033612E-03
-2.053357E-03 -2.988799E-03 -3.045701E-03 -3.045439E-03 -3.043684E-03 -3.041787E-03 -3.039699E-03 -3.037462E-03 -3.035236E-03 -3.033577E-03
-2.053239E-03 -2.975576E-03 -3.044728E-03 -3.045167E-03 -3.043459E-03 -3.041600E-03 -3.039539E-03 -3.037314E-03 -3.035083E-03 -3.033437E-03
-2.053151E-03 -2.969205E-03 -3.044051E-03 -3.044921E-03 -3.043242E-03 -3.041408E-03 -3.039368E-03 -3.037152E-03 -3.034919E-03 -3.033288E-03
-2.053125E-03 -2.966580E-03 -3.043675E-03 -3.044734E-03 -3.043062E-03 -3.041238E-03 -3.039207E-03 -3.036996E-03 -3.034764E-03 -3.033150E-03
-2.053168E-03 -2.966615E-03 -3.043700E-03 -3.044751E-03 -3.043074E-03 -3.041245E-03 -3.039211E-03 -3.036998E-03 -3.034765E-03 -3.033150E-03
-2.053270E-03 -2.969213E-03 -3.043972E-03 -3.044789E-03 -3.043078E-03 -3.041224E-03 -3.039173E-03 -3.036952E-03 -3.034723E-03 -3.033120E-03
-2.053428E-03 -2.975536E-03 -3.044526E-03 -3.044870E-03 -3.043104E-03 -3.041211E-03 -3.039133E-03 -3.036901E-03 -3.034680E-03 -3.033095E-03
-2.053600E-03 -2.988661E-03 -3.045334E-03 -3.044944E-03 -3.043116E-03 -3.041176E-03 -3.039066E-03 -3.036823E-03 -3.034617E-03 -3.033054E-03
-2.833667E-03 -3.039594E-03 -3.046393E-03 -3.044708E-03 -3.042885E-03 -3.040934E-03 -3.038811E-03 -3.036574E-03 -3.034403E-03 -3.032885E-03
-3.024153E-03 -3.047084E-03 -3.045941E-03 -3.044225E-03 -3.042432E-03 -3.040475E-03 -3.038350E-03 -3.036134E-03 -3.034022E-03 -3.032578E-03
-3.046750E-03 -3.046765E-03 -3.045202E-03 -3.043566E-03 -3.041780E-03 -3.039816E-03 -3.037694E-03 -3.035517E-03 -3.033494E-03 -3.032156E-03
-3.047081E-03 -3.045784E-03 -3.044337E-03 -3.042721E-03 -3.040922E-03 -3.038947E-03 -3.036840E-03 -3.034734E-03 -3.032842E-03 -3.031643E-03
-3.045890E-03 -3.044675E-03 -3.043241E-03 -3.041600E-03 -3.039777E-03 -3.037800E-03 -3.035742E-03 -3.033763E-03 -3.032064E-03 -3.031042E-03
-3.044247E-03 -3.042981E-03 -3.041489E-03 -3.039806E-03 -3.037976E-03 -3.036051E-03 -3.034144E-03 -3.032417E-03 -3.031012E-03 -3.030211E-03


SCALARS Total_SiO2(aq)       float 1
LOOKUP_TABLE default
 1.040381E-02  1.040169E-02  1.040217E-02  1.040305E-02  1.040393E-02  1.040466E-02  1.040507E-02  1.040493E-02  1.040407E-02  1.040256E-02
 1.043039E-02  1.040642E-02  1.040329E-02  1.040376E-02  1.040465E-02  1.040547E-02  1.040606E-02  1.040617E-02  1.040552E-02  1.040402E-02
 1.054116E-02  1.042796E-02  1.040685E-02  1.040471E-02  1.040535E-02  1.040620E-02  1.040688E-02  1.040716E-02  1.040670E-02  1.040529E-02
 1.084568E-02  1.049971E-02  1.041917E-02  1.040677E-02  1.040616E-02  1.040693E-02  1.040767E-02  1.040807E-02  1.040777E-02  1.040647E-02
 1.143543E-02  1.067507E-02  1.045344E-02  1.041203E-02  1.040735E-02  1.040773E-02  1.040849E-02  1.040897E-02  1.040879E-02  1.040761E-02
 1.226375E-02  1.099502E-02  1.052557E-02  1.042361E-02  1.040935E-02  1.040867E-02  1.040936E-02  1.040990E-02  1.040982E-02  1.040872E-02
 1.310350E-02  1.141229E-02  1.063139E-02  1.044189E-02  1.041234E-02  1.040978E-02  1.041031E-02  1.041087E-02  1.041086E-02  1.040983E-02
 1.310237E-02  1.152160E-02  1.068509E-02  1.045455E-02  1.041496E-02  1.041091E-02  1.041129E-02  1.041186E-02  1.041189E-02  1.041089E-02
 1.310170E-02  1.157053E-02  1.071652E-02  1.046327E-02  1.041695E-02  1.041182E-02  1.041208E-02  1.041265E-02  1.041271E-02  1.041174E-02
 1.310154E-02  1.159044E-02  1.073135E-02  1.046790E-02  1.041819E-02  1.041248E-02  1.041269E-02  1.041326E-02  1.041333E-02  1.041236E-02
 1.310179E-02  1.159050E-02  1.073135E-02  1.046789E-02  1.041819E-02  1.041248E-02  1.041269E-02  1.041327E-02  1.041334E-02  1.041237E-02
 1.310249E-02  1.157096E-02  1.071690E-02  1.046373E-02  1.041748E-02  1.041239E-02  1.041268E-02  1.041326E-02  1.041331E-02  1.041231E-02
 1.310369E-02  1.152238E-02  1.068588E-02  1.045551E-02  1.041605E-02  1.041209E-02  1.041251E-02  1.041310E-02  1.041311E-02  1.041204E-02
 1.310529E-02  1.141344E-02  1.063266E-02  1.044341E-02  1.041405E-02  1.041159E-02  1.041219E-02  1.041277E-02  1.041273E-02  1.041156E-02
 1.226562E-02  1.099677E-02  1.052759E-02  1.042591E-02  1.041183E-02  1.041125E-02  1.041200E-02  1.041255E-02  1.041240E-02  1.041109E-02
 1.143786E-02  1.067770E-02  1.045640E-02  1.041525E-02  1.041072E-02  1.041119E-02  1.041199E-02  1.041246E-02  1.041216E-02  1.041064E-02
 1.084907E-02  1.050341E-02  1.042318E-02  1.041098E-02  1.041050E-02  1.041133E-02  1.041210E-02  1.041245E-02  1.041193E-02  1.041014E-02
 1.054573E-02  1.043283E-02  1.041195E-02  1.040997E-02  1.041069E-02  1.041159E-02  1.041226E-02  1.041243E-02  1.041161E-02  1.040950E-02
 1.043624E-02  1.041248E-02  1.040952E-02  1.041009E-02  1.041103E-02  1.041186E-02  1.041239E-02  1.041226E-02  1.041100E-02  1.040853E-02