# vtk DataFile Version 2.0
PFLOTRAN output
ASCII
DATASET UNSTRUCTURED_GRID
POINTS         4242 float
 0.000000E+00  0.000000E+00  0.000000E+00
 2.000000E+02  0.000000E+00  0.000000E+00
 4.000000E+02  0.000000E+00  0.000000E+00
 6.000000E+02  0.000000E+00  0.000000E+00
 8.000000E+02  0.000000E+00  0.000000E+00
 1.000000E+03  0.000000E+00  0.000000E+00
 1.200000E+03  0.000000E+00  0.000000E+00
 1.400000E+03  0.000000E+00  0.000000E+00
 1.600000E+03  0.000000E+00  0.000000E+00
 1.800000E+03  0.000000E+00  0.000000E+00
 2.000000E+03  0.000000E+00  0.000000E+00
 2.200000E+03  0.000000E+00  0.000000E+00
 2.400000E+03  0.000000E+00  0.000000E+00
 2.600000E+03  0.000000E+00  0.000000E+00
 2.800000E+03  0.000000E+00  0.000000E+00
 3.000000E+03  0.000000E+00  0.000000E+00
 3.200000E+03  0.000000E+00  0.000000E+00
 3.400000E+03  0.000000E+00  0.000000E+00
 3.600000E+03  0.000000E+00  0.000000E+00
 3.800000E+03  0.000000E+00  0.000000E+00
 4.000000E+03  0.000000E+00  0.000000E+00
 4.200000E+03  0.000000E+00  0.000000E+00
 4.400000E+03  0.000000E+00  0.000000E+00
 4.600000E+03  0.000000E+00  0.000000E+00
 4.800000E+03  0.000000E+00  0.000000E+00
 5.000000E+03  0.000000E+00  0.000000E+00
 5.200000E+03  0.000000E+00  0.000000E+00
 5.400000E+03  0.000000E+00  0.000000E+00
 5.600000E+03  0.000000E+00  0.000000E+00
 5.800000E+03  0.000000E+00  0.000000E+00
 6.000000E+03  0.000000E+00  0.000000E+00
 6.200000E+03  0.000000E+00  0.000000E+00
 6.400000E+03  0.000000E+00  0.000000E+00
 6.600000E+03  0.000000E+00  0.000000E+00
 6.800000E+03  0.000000E+00  0.000000E+00
 7.000000E+03  0.000000E+00  0.000000E+00
 7.200000E+03  0.000000E+00  0.000000E+00
 7.400000E+03  0.000000E+00  0.000000E+00
 7.600000E+03  0.000000E+00  0.000000E+00
 7.800000E+03  0.000000E+00  0.000000E+00
 8.000000E+03  0.000000E+00  0.000000E+00
 8.200000E+03  0.000000E+00  0.000000E+00
 8.400000E+03  0.000000E+00  0.000000E+00
 8.600000E+03  0.000000E+00  0.000000E+00
 8.800000E+03  0.000000E+00  0.000000E+00
 9.000000E+03  0.000000E+00  0.000000E+00
 9.200000E+03  0.000000E+00  0.000000E+00
 9.400000E+03  0.000000E+00  0.000000E+00
 9.600000E+03  0.000000E+00  0.000000E+00
 9.800000E+03  0.000000E+00  0.000000E+00
 1.000000E+04  0.000000E+00  0.000000E+00
 1.020000E+04  0.000000E+00  0.000000E+00
 1.040000E+04  0.000000E+00  0.000000E+00
 1.060000E+04  0.000000E+00  0.000000E+00
 1.080000E+04  0.000000E+00  0.000000E+00
 1.100000E+04  0.000000E+00  0.000000E+00
 1.120000E+04  0.000000E+00  0.000000E+00
 1.140000E+04  0.000000E+00  0.000000E+00
 1.160000E+04  0.000000E+00  0.000000E+00
 1.180000E+04  0.000000E+00  0.000000E+00
 1.200000E+04  0.000000E+00  0.000000E+00
 1.220000E+04  0.000000E+00  0.000000E+00
 1.240000E+04  0.000000E+00  0.000000E+00
 1.260000E+04  0.000000E+00  0.000000E+00
 1.280000E+04  0.000000E+00  0.000000E+00
 1.300000E+04  0.000000E+00  0.000000E+00
 1.320000E+04  0.000000E+00  0.000000E+00
 1.340000E+04  0.000000E+00  0.000000E+00
 1.360000E+04  0.000000E+00  0.000000E+00
 1.380000E+04  0.000000E+00  0.000000E+00
 1.400000E+04  0.000000E+00  0.000000E+00
 1.420000E+04  0.000000E+00  0.000000E+00
 1.440000E+04  0.000000E+00  0.000000E+00
 1.460000E+04  0.000000E+00  0.000000E+00
 1.480000E+04  0.000000E+00  0.000000E+00
 1.500000E+04  0.000000E+00  0.000000E+00
 1.520000E+04  0.000000E+00  0.000000E+00
 1.540000E+04  0.000000E+00  0.000000E+00
 1.560000E+04  0.000000E+00  0.000000E+00
 1.580000E+04  0.000000E+00  0.000000E+00
 1.600000E+04  0.000000E+00  0.000000E+00
 1.620000E+04  0.000000E+00  0.000000E+00
 1.640000E+04  0.000000E+00  0.000000E+00
 1.660000E+04  0.000000E+00  0.000000E+00
 1.680000E+04  0.000000E+00  0.000000E+00
 1.700000E+04  0.000000E+00  0.000000E+00
 1.720000E+04  0.000000E+00  0.000000E+00
 1.740000E+04  0.000000E+00  0.000000E+00
 1.760000E+04  0.000000E+00  0.000000E+00
 1.780000E+04  0.000000E+00  0.000000E+00
 1.800000E+04  0.000000E+00  0.000000E+00
 1.820000E+04  0.000000E+00  0.000000E+00
 1.840000E+04  0.000000E+00  0.000000E+00
 1.860000E+04  0.000000E+00  0.000000E+00
 1.880000E+04  0.000000E+00  0.000000E+00
 1.900000E+04  0.000000E+00  0.000000E+00
 1.920000E+04  0.000000E+00  0.000000E+00
 1.940000E+04  0.000000E+00  0.000000E+00
 1.960000E+04  0.000000E+00  0.000000E+00
 1.980000E+04  0.000000E+00  0.000000E+00
 2.000000E+04  0.000000E+00  0.000000E+00
 0.000000E+00  1.000000E+00  0.000000E+00
 2.000000E+02  1.000000E+00  0.000000E+00
 4.000000E+02  1.000000E+00  0.000000E+00
 6.000000E+02  1.000000E+00  0.000000E+00
 8.000000E+02  1.000000E+00  0.000000E+00
 1.000000E+03  1.000000E+00  0.000000E+00
 1.200000E+03  1.000000E+00  0.000000E+00
 1.400000E+03  1.000000E+00  0.000000E+00
 1.600000E+03  1.000000E+00  0.000000E+00
 1.800000E+03  1.000000E+00  0.000000E+00
 2.000000E+03  1.000000E+00  0.000000E+00
 2.200000E+03  1.000000E+00  0.000000E+00
 2.400000E+03  1.000000E+00  0.000000E+00
 2.600000E+03  1.000000E+00  0.000000E+00
 2.800000E+03  1.000000E+00  0.000000E+00
 3.000000E+03  1.000000E+00  0.000000E+00
 3.200000E+03  1.000000E+00  0.000000E+00
 3.400000E+03  1.000000E+00  0.000000E+00
 3.600000E+03  1.000000E+00  0.000000E+00
 3.800000E+03  1.000000E+00  0.000000E+00
 4.000000E+03  1.000000E+00  0.000000E+00
 4.200000E+03  1.000000E+00  0.000000E+00
 4.400000E+03  1.000000E+00  0.000000E+00
 4.600000E+03  1.000000E+00  0.000000E+00
 4.800000E+03  1.000000E+00  0.000000E+00
 5.000000E+03  1.000000E+00  0.000000E+00
 5.200000E+03  1.000000E+00  0.000000E+00
 5.400000E+03  1.000000E+00  0.000000E+00
 5.600000E+03  1.000000E+00  0.000000E+00
 5.800000E+03  1.000000E+00  0.000000E+00
 6.000000E+03  1.000000E+00  0.000000E+00
 6.200000E+03  1.000000E+00  0.000000E+00
 6.400000E+03  1.000000E+00  0.000000E+00
 6.600000E+03  1.000000E+00  0.000000E+00
 6.800000E+03  1.000000E+00  0.000000E+00
 7.000000E+03  1.000000E+00  0.000000E+00
 7.200000E+03  1.000000E+00  0.000000E+00
 7.400000E+03  1.000000E+00  0.000000E+00
 7.600000E+03  1.000000E+00  0.000000E+00
 7.800000E+03  1.000000E+00  0.000000E+00
 8.000000E+03  1.000000E+00  0.000000E+00
 8.200000E+03  1.000000E+00  0.000000E+00
 8.400000E+03  1.000000E+00  0.000000E+00
 8.600000E+03  1.000000E+00  0.000000E+00
 8.800000E+03  1.000000E+00  0.000000E+00
 9.000000E+03  1.000000E+00  0.000000E+00
 9.200000E+03  1.000000E+00  0.000000E+00
 9.400000E+03  1.000000E+00  0.000000E+00
 9.600000E+03  1.000000E+00  0.000000E+00
 9.800000E+03  1.000000E+00  0.000000E+00
 1.000000E+04  1.000000E+00  0.000000E+00
 1.020000E+04  1.000000E+00  0.000000E+00
 1.040000E+04  1.000000E+00  0.000000E+00
 1.060000E+04  1.000000E+00  0.000000E+00
 1.080000E+04  1.000000E+00  0.000000E+00
 1.100000E+04  1.000000E+00  0.000000E+00
 1.120000E+04  1.000000E+00  0.000000E+00
 1.140000E+04  1.000000E+00  0.000000E+00
 1.160000E+04  1.000000E+00  0.000000E+00
 1.180000E+04  1.000000E+00  0.000000E+00
 1.200000E+04  1.000000E+00  0.000000E+00
 1.220000E+04  1.000000E+00  0.000000E+00
 1.240000E+04  1.000000E+00  0.000000E+00
 1.260000E+04  1.000000E+00  0.000000E+00
 1.280000E+04  1.000000E+00  0.000000E+00
 1.300000E+04  1.000000E+00  0.000000E+00
 1.320000E+04  1.000000E+00  0.000000E+00
 1.340000E+04  1.000000E+00  0.000000E+00
 1.360000E+04  1.000000E+00  0.000000E+00
 1.380000E+04  1.000000E+00  0.000000E+00
 1.400000E+04  1.000000E+00  0.000000E+00
 1.420000E+04  1.000000E+00  0.000000E+00
 1.440000E+04  1.000000E+00  0.000000E+00
 1.460000E+04  1.000000E+00  0.000000E+00
 1.480000E+04  1.000000E+00  0.000000E+00
 1.500000E+04  1.000000E+00  0.000000E+00
 1.520000E+04  1.000000E+00  0.000000E+00
 1.540000E+04  1.000000E+00  0.000000E+00
 1.560000E+04  1.000000E+00  0.000000E+00
 1.580000E+04  1.000000E+00  0.000000E+00
 1.600000E+04  1.000000E+00  0.000000E+00
 1.620000E+04  1.000000E+00  0.000000E+00
 1.640000E+04  1.000000E+00  0.000000E+00
 1.660000E+04  1.000000E+00  0.000000E+00
 1.680000E+04  1.000000E+00  0.000000E+00
 1.700000E+04  1.000000E+00  0.000000E+00
 1.720000E+04  1.000000E+00  0.000000E+00
 1.740000E+04  1.000000E+00  0.000000E+00
 1.760000E+04  1.000000E+00  0.000000E+00
 1.780000E+04  1.000000E+00  0.000000E+00
 1.800000E+04  1.000000E+00  0.000000E+00
 1.820000E+04  1.000000E+00  0.000000E+00
 1.840000E+04  1.000000E+00  0.000000E+00
 1.860000E+04  1.000000E+00  0.000000E+00
 1.880000E+04  1.000000E+00  0.000000E+00
 1.900000E+04  1.000000E+00  0.000000E+00
 1.920000E+04  1.000000E+00  0.000000E+00
 1.940000E+04  1.000000E+00  0.000000E+00
 1.960000E+04  1.000000E+00  0.000000E+00
 1.980000E+04  1.000000E+00  0.000000E+00
 2.000000E+04  1.000000E+00  0.000000E+00
 0.000000E+00  0.000000E+00  1.500000E+01
 2.000000E+02  0.000000E+00  1.500000E+01
 4.000000E+02  0.000000E+00  1.500000E+01
 6.000000E+02  0.000000E+00  1.500000E+01
 8.000000E+02  0.000000E+00  1.500000E+01
 1.000000E+03  0.000000E+00  1.500000E+01
 1.200000E+03  0.000000E+00  1.500000E+01
 1.400000E+03  0.000000E+00  1.500000E+01
 1.600000E+03  0.000000E+00  1.500000E+01
 1.800000E+03  0.000000E+00  1.500000E+01
 2.000000E+03  0.000000E+00  1.500000E+01
 2.200000E+03  0.000000E+00  1.500000E+01
 2.400000E+03  0.000000E+00  1.500000E+01
 2.600000E+03  0.000000E+00  1.500000E+01
 2.800000E+03  0.000000E+00  1.500000E+01
 3.000000E+03  0.000000E+00  1.500000E+01
 3.200000E+03  0.000000E+00  1.500000E+01
 3.400000E+03  0.000000E+00  1.500000E+01
 3.600000E+03  0.000000E+00  1.500000E+01
 3.800000E+03  0.000000E+00  1.500000E+01
 4.000000E+03  0.000000E+00  1.500000E+01
 4.200000E+03  0.000000E+00  1.500000E+01
 4.400000E+03  0.000000E+00  1.500000E+01
 4.600000E+03  0.000000E+00  1.500000E+01
 4.800000E+03  0.000000E+00  1.500000E+01
 5.000000E+03  0.000000E+00  1.500000E+01
 5.200000E+03  0.000000E+00  1.500000E+01
 5.400000E+03  0.000000E+00  1.500000E+01
 5.600000E+03  0.000000E+00  1.500000E+01
 5.800000E+03  0.000000E+00  1.500000E+01
 6.000000E+03  0.000000E+00  1.500000E+01
 6.200000E+03  0.000000E+00  1.500000E+01
 6.400000E+03  0.000000E+00  1.500000E+01
[...]
CELL_DATA     2000
SCALARS Vlx                  float 1
LOOKUP_TABLE default
 3.760607E+01  3.669741E+01  3.212744E+01  2.600699E+01  2.108205E+01  1.748292E+01  1.485723E+01  1.289387E+01  1.138184E+01  1.018515E+01
 9.215556E+00  8.414350E+00  7.741267E+00  7.167879E+00  6.673572E+00  6.243044E+00  5.864698E+00  5.529592E+00  5.230712E+00  4.962485E+00
 4.720427E+00  4.500885E+00  4.300858E+00  4.117854E+00  3.949788E+00  3.794904E+00  3.651710E+00  3.518929E+00  3.395466E+00  3.280373E+00
 3.172827E+00  3.072110E+00  2.977590E+00  2.888713E+00  2.804989E+00  2.725981E+00  2.651303E+00  2.580607E+00  2.513584E+00  2.449954E+00
 2.389466E+00  2.331894E+00  2.277031E+00  2.224690E+00  2.174701E+00  2.126910E+00  2.081175E+00  2.037365E+00  1.995362E+00  1.955055E+00
 1.916346E+00  1.879139E+00  1.843350E+00  1.808899E+00  1.775712E+00  1.743721E+00  1.712862E+00  1.683077E+00  1.654310E+00  1.626510E+00
 1.599629E+00  1.573622E+00  1.548448E+00  1.524066E+00  1.500440E+00  1.477536E+00  1.455321E+00  1.433764E+00  1.412836E+00  1.392511E+00
 1.372762E+00  1.353566E+00  1.334899E+00  1.316740E+00  1.299069E+00  1.281866E+00  1.265112E+00  1.248791E+00  1.232886E+00  1.217381E+00
 1.202261E+00  1.187512E+00  1.173121E+00  1.159075E+00  1.145361E+00  1.131967E+00  1.118884E+00  1.106099E+00  1.093604E+00  1.081388E+00
 1.069442E+00  1.057757E+00  1.046325E+00  1.035139E+00  1.024190E+00  1.013473E+00  1.002983E+00  9.927165E-01  9.826788E-01  9.729064E-01
 4.052718E+01  3.830924E+01  3.266766E+01  2.615939E+01  2.112395E+01  1.749506E+01  1.486133E+01  1.289572E+01  1.138300E+01  1.018606E+01
 9.216345E+00  8.415060E+00  7.741918E+00  7.168481E+00  6.674132E+00  6.243567E+00  5.865190E+00  5.530055E+00  5.231150E+00  4.962901E+00
 4.720822E+00  4.501262E+00  4.301218E+00  4.118198E+00  3.950119E+00  3.795222E+00  3.652015E+00  3.519223E+00  3.395750E+00  3.280648E+00
 3.173093E+00  3.072367E+00  2.977839E+00  2.888955E+00  2.805224E+00  2.726209E+00  2.651524E+00  2.580823E+00  2.513794E+00  2.450159E+00
 2.389666E+00  2.332089E+00  2.277221E+00  2.224876E+00  2.174883E+00  2.127088E+00  2.081349E+00  2.037535E+00  1.995529E+00  1.955219E+00
 1.916506E+00  1.879296E+00  1.843504E+00  1.809050E+00  1.775860E+00  1.743866E+00  1.713005E+00  1.683217E+00  1.654448E+00  1.626646E+00
 1.599763E+00  1.573754E+00  1.548577E+00  1.524193E+00  1.500566E+00  1.477660E+00  1.455443E+00  1.433884E+00  1.412954E+00  1.392627E+00
 1.372877E+00  1.353679E+00  1.335011E+00  1.316850E+00  1.299177E+00  1.281973E+00  1.265218E+00  1.248896E+00  1.232989E+00  1.217483E+00
 1.202362E+00  1.187612E+00  1.173219E+00  1.159172E+00  1.145456E+00  1.132062E+00  1.118977E+00  1.106192E+00  1.093695E+00  1.081478E+00
 1.069531E+00  1.057845E+00  1.046413E+00  1.035225E+00  1.024275E+00  1.013557E+00  1.003066E+00  9.927984E-01  9.827574E-01  9.729590E-01
 4.673623E+01  4.164565E+01  3.373075E+01  2.645139E+01  2.120248E+01  1.751687E+01  1.486802E+01  1.289827E+01  1.138436E+01  1.018702E+01
 9.217148E+00  8.415774E+00  7.742569E+00  7.169082E+00  6.674691E+00  6.244090E+00  5.865681E+00  5.530518E+00  5.231588E+00  4.963316E+00
 4.721217E+00  4.501639E+00  4.301578E+00  4.118543E+00  3.950450E+00  3.795540E+00  3.652321E+00  3.519518E+00  3.396034E+00  3.280922E+00
 3.173358E+00  3.072624E+00  2.978088E+00  2.889197E+00  2.805458E+00  2.726437E+00  2.651746E+00  2.581039E+00  2.514004E+00  2.450364E+00
 2.389866E+00  2.332284E+00  2.277412E+00  2.225062E+00  2.175065E+00  2.127266E+00  2.081523E+00  2.037706E+00  1.995695E+00  1.955382E+00
 1.916666E+00  1.879453E+00  1.843658E+00  1.809201E+00  1.776009E+00  1.744012E+00  1.713148E+00  1.683358E+00  1.654586E+00  1.626782E+00
 1.599896E+00  1.573885E+00  1.548707E+00  1.524321E+00  1.500691E+00  1.477783E+00  1.455564E+00  1.434004E+00  1.413072E+00  1.392744E+00
 1.372992E+00  1.353792E+00  1.335122E+00  1.316960E+00  1.299286E+00  1.282080E+00  1.265324E+00  1.249000E+00  1.233092E+00  1.217584E+00
 1.202462E+00  1.187711E+00  1.173317E+00  1.159268E+00  1.145552E+00  1.132157E+00  1.119071E+00  1.106284E+00  1.093787E+00  1.081569E+00
 1.069621E+00  1.057934E+00  1.046500E+00  1.035311E+00  1.024361E+00  1.013642E+00  1.003149E+00  9.928793E-01  9.828337E-01  9.730158E-01
 5.702352E+01  4.694428E+01  3.527993E+01  2.686127E+01  2.131076E+01  1.754642E+01  1.487676E+01  1.290137E+01  1.138586E+01  1.018803E+01
 9.217963E+00  8.416491E+00  7.743221E+00  7.169683E+00  6.675250E+00  6.244612E+00  5.866172E+00  5.530981E+00  5.232025E+00  4.963732E+00
 4.721612E+00  4.502015E+00  4.301938E+00  4.118887E+00  3.950780E+00  3.795857E+00  3.652626E+00  3.519812E+00  3.396318E+00  3.281197E+00
 3.173624E+00  3.072881E+00  2.978337E+00  2.889438E+00  2.805693E+00  2.726665E+00  2.651968E+00  2.581254E+00  2.514214E+00  2.450569E+00
 2.390066E+00  2.332479E+00  2.277602E+00  2.225248E+00  2.175247E+00  2.127444E+00  2.081697E+00  2.037876E+00  1.995862E+00  1.955546E+00
 1.916826E+00  1.879610E+00  1.843812E+00  1.809352E+00  1.776157E+00  1.744158E+00  1.713292E+00  1.683499E+00  1.654725E+00  1.626918E+00
 1.600030E+00  1.574017E+00  1.548836E+00  1.524448E+00  1.500817E+00  1.477907E+00  1.455686E+00  1.434123E+00  1.413191E+00  1.392860E+00
 1.373106E+00  1.353905E+00  1.335234E+00  1.317070E+00  1.299395E+00  1.282187E+00  1.265430E+00  1.249104E+00  1.233195E+00  1.217686E+00
 1.202563E+00  1.187810E+00  1.173415E+00  1.159365E+00  1.145648E+00  1.132251E+00  1.119165E+00  1.106377E+00  1.093878E+00  1.081659E+00
 1.069710E+00  1.058022E+00  1.046587E+00  1.035398E+00  1.024446E+00  1.013726E+00  1.003231E+00  9.929593E-01  9.829085E-01  9.730758E-01
 7.272479E+01  5.458582E+01  3.724321E+01  2.735585E+01  2.143902E+01  1.758104E+01  1.488683E+01  1.290483E+01  1.138747E+01  1.018906E+01
 9.218784E+00  8.417210E+00  7.743873E+00  7.170285E+00  6.675809E+00  6.245135E+00  5.866663E+00  5.531443E+00  5.232463E+00  4.964147E+00
 4.722007E+00  4.502392E+00  4.302297E+00  4.119232E+00  3.951110E+00  3.796174E+00  3.652932E+00  3.520106E+00  3.396602E+00  3.281471E+00
 3.173889E+00  3.073138E+00  2.978586E+00  2.889680E+00  2.805927E+00  2.726893E+00  2.652190E+00  2.581470E+00  2.514424E+00  2.450773E+00
 2.390266E+00  2.332674E+00  2.277792E+00  2.225434E+00  2.175429E+00  2.127622E+00  2.081871E+00  2.038046E+00  1.996029E+00  1.955709E+00
 1.916986E+00  1.879767E+00  1.843966E+00  1.809504E+00  1.776305E+00  1.744304E+00  1.713435E+00  1.683640E+00  1.654863E+00  1.627054E+00
 1.600164E+00  1.574148E+00  1.548965E+00  1.524576E+00  1.500942E+00  1.478030E+00  1.455808E+00  1.434243E+00  1.413309E+00  1.392976E+00
 1.373221E+00  1.354018E+00  1.335345E+00  1.317180E+00  1.299503E+00  1.282294E+00  1.265535E+00  1.249209E+00  1.233298E+00  1.217788E+00
 1.202663E+00  1.187909E+00  1.173513E+00  1.159462E+00  1.145744E+00  1.132346E+00  1.119258E+00  1.106469E+00  1.093970E+00  1.081749E+00
 1.069799E+00  1.058110E+00  1.046675E+00  1.035484E+00  1.024531E+00  1.013809E+00  1.003313E+00  9.930385E-01  9.829825E-01  9.731382E-01
 9.592669E+01  6.512387E+01  3.948959E+01  2.789076E+01  2.157520E+01  1.761751E+01  1.489737E+01  1.290842E+01  1.138910E+01  1.019010E+01
 9.219608E+00  8.417929E+00  7.744525E+00  7.170886E+00  6.676368E+00  6.245657E+00  5.867153E+00  5.531906E+00  5.232900E+00  4.964562E+00
 4.722402E+00  4.502768E+00  4.302657E+00  4.119576E+00  3.951440E+00  3.796492E+00  3.653237E+00  3.520401E+00  3.396886E+00  3.281745E+00
 3.174154E+00  3.073394E+00  2.978835E+00  2.889921E+00  2.806162E+00  2.727121E+00  2.652411E+00  2.581686E+00  2.514634E+00  2.450978E+00
 2.390465E+00  2.332869E+00  2.277982E+00  2.225620E+00  2.175611E+00  2.127799E+00  2.082045E+00  2.038217E+00  1.996196E+00  1.955873E+00
 1.917147E+00  1.879924E+00  1.844120E+00  1.809655E+00  1.776454E+00  1.744449E+00  1.713578E+00  1.683780E+00  1.655001E+00  1.627190E+00
 1.600297E+00  1.574280E+00  1.549095E+00  1.524703E+00  1.501067E+00  1.478154E+00  1.455929E+00  1.434363E+00  1.413427E+00  1.393093E+00
 1.373336E+00  1.354131E+00  1.335457E+00  1.317290E+00  1.299612E+00  1.282401E+00  1.265641E+00  1.249313E+00  1.233401E+00  1.217890E+00
 1.202763E+00  1.188009E+00  1.173611E+00  1.159559E+00  1.145839E+00  1.132440E+00  1.119351E+00  1.106562E+00  1.094061E+00  1.081840E+00
 1.069889E+00  1.058199E+00  1.046762E+00  1.035570E+00  1.024616E+00  1.013893E+00  1.003395E+00  9.931171E-01  9.830559E-01  9.732025E-01
 1.296363E+02  7.927544E+01  4.179072E+01  2.841223E+01  2.170605E+01  1.765240E+01  1.490747E+01  1.291188E+01  1.139070E+01  1.019113E+01
 9.220429E+00  8.418647E+00  7.745177E+00  7.171487E+00  6.676926E+00  6.246180E+00  5.867644E+00  5.532368E+00  5.233338E+00  4.964976E+00
 4.722796E+00  4.503144E+00  4.303016E+00  4.119920E+00  3.951770E+00  3.796809E+00  3.653542E+00  3.520695E+00  3.397170E+00  3.282019E+00
 3.174419E+00  3.073651E+00  2.979084E+00  2.890163E+00  2.806396E+00  2.727349E+00  2.652633E+00  2.581901E+00  2.514844E+00  2.451183E+00
 2.390665E+00  2.333063E+00  2.278173E+00  2.225806E+00  2.175792E+00  2.127977E+00  2.082219E+00  2.038387E+00  1.996362E+00  1.956036E+00
 1.917307E+00  1.880081E+00  1.844274E+00  1.809806E+00  1.776602E+00  1.744595E+00  1.713721E+00  1.683921E+00  1.655139E+00  1.627325E+00
 1.600431E+00  1.574411E+00  1.549224E+00  1.524830E+00  1.501193E+00  1.478277E+00  1.456051E+00  1.434483E+00  1.413545E+00  1.393209E+00
 1.373450E+00  1.354244E+00  1.335568E+00  1.317400E+00  1.299720E+00  1.282508E+00  1.265747E+00  1.249417E+00  1.233504E+00  1.217991E+00
 1.202864E+00  1.188108E+00  1.173709E+00  1.159656E+00  1.145935E+00  1.132535E+00  1.119445E+00  1.106654E+00  1.094152E+00  1.081930E+00
 1.069978E+00  1.058287E+00  1.046849E+00  1.035656E+00  1.024701E+00  1.013976E+00  1.003476E+00  9.931953E-01  9.831289E-01  9.732681E-01
 1.517201E+02  8.912780E+01  4.376289E+01  2.886257E+01  2.181848E+01  1.768241E+01  1.491627E+01  1.291499E+01  1.139221E+01  1.019214E+01
 9.221243E+00  8.419363E+00  7.745828E+00  7.172087E+00  6.677485E+00  6.246702E+00  5.868134E+00  5.532830E+00  5.233775E+00  4.965391E+00
 4.723191E+00  4.503520E+00  4.303376E+00  4.120264E+00  3.952100E+00  3.797126E+00  3.653847E+00  3.520988E+00  3.397453E+00  3.282293E+00
 3.174684E+00  3.073908E+00  2.979333E+00  2.890404E+00  2.806630E+00  2.727576E+00  2.652854E+00  2.582117E+00  2.515054E+00  2.451387E+00
 2.390864E+00  2.333258E+00  2.278363E+00  2.225991E+00  2.175974E+00  2.128155E+00  2.082392E+00  2.038557E+00  1.996529E+00  1.956199E+00
 1.917467E+00  1.880238E+00  1.844428E+00  1.809957E+00  1.776750E+00  1.744741E+00  1.713864E+00  1.684061E+00  1.655277E+00  1.627461E+00
 1.600565E+00  1.574543E+00  1.549353E+00  1.524957E+00  1.501318E+00  1.478400E+00  1.456172E+00  1.434602E+00  1.413663E+00  1.393325E+00
 1.373565E+00  1.354357E+00  1.335680E+00  1.317510E+00  1.299829E+00  1.282615E+00  1.265852E+00  1.249522E+00  1.233607E+00  1.218093E+00
 1.202964E+00  1.188207E+00  1.173807E+00  1.159752E+00  1.146030E+00  1.132629E+00  1.119538E+00  1.106746E+00  1.094244E+00  1.082020E+00
 1.070067E+00  1.058375E+00  1.046936E+00  1.035742E+00  1.024786E+00  1.014059E+00  1.003557E+00  9.932731E-01  9.832018E-01  9.733346E-01
 1.649766E+02  9.532464E+01  4.517962E+01  2.919268E+01  2.190110E+01  1.770468E+01  1.492301E+01  1.291755E+01  1.139356E+01  1.019310E+01
 9.222045E+00  8.420076E+00  7.746478E+00  7.172687E+00  6.678043E+00  6.247224E+00  5.868624E+00  5.533292E+00  5.234212E+00  4.965806E+00
 4.723585E+00  4.503896E+00  4.303735E+00  4.120608E+00  3.952430E+00  3.797443E+00  3.654152E+00  3.521282E+00  3.397737E+00  3.282567E+00
 3.174949E+00  3.074164E+00  2.979581E+00  2.890645E+00  2.806864E+00  2.727804E+00  2.653075E+00  2.582332E+00  2.515264E+00  2.451592E+00
 2.391064E+00  2.333453E+00  2.278553E+00  2.226177E+00  2.176155E+00  2.128332E+00  2.082566E+00  2.038727E+00  1.996695E+00  1.956362E+00
 1.917627E+00  1.880395E+00  1.844582E+00  1.810108E+00  1.776898E+00  1.744886E+00  1.714007E+00  1.684202E+00  1.655415E+00  1.627597E+00
 1.600698E+00  1.574674E+00  1.549482E+00  1.525085E+00  1.501443E+00  1.478524E+00  1.456294E+00  1.434722E+00  1.413780E+00  1.393441E+00
 1.373679E+00  1.354470E+00  1.335791E+00  1.317620E+00  1.299937E+00  1.282722E+00  1.265958E+00  1.249626E+00  1.233710E+00  1.218194E+00
 1.203065E+00  1.188306E+00  1.173905E+00  1.159849E+00  1.146126E+00  1.132724E+00  1.119632E+00  1.106839E+00  1.094335E+00  1.082110E+00
 1.070156E+00  1.058463E+00  1.047023E+00  1.035828E+00  1.024870E+00  1.014143E+00  1.003638E+00  9.933507E-01  9.832745E-01  9.734017E-01
 1.711947E+02  9.831781E+01  4.591723E+01  2.936794E+01  2.194556E+01  1.771712E+01  1.492715E+01  1.291941E+01  1.139473E+01  1.019401E+01
 9.222833E+00  8.420785E+00  7.747127E+00  7.173287E+00  6.678601E+00  6.247745E+00  5.869114E+00  5.533754E+00  5.234649E+00  4.966220E+00
 4.723979E+00  4.504272E+00  4.304094E+00  4.120952E+00  3.952760E+00  3.797759E+00  3.654457E+00  3.521576E+00  3.398020E+00  3.282841E+00
 3.175214E+00  3.074420E+00  2.979830E+00  2.890886E+00  2.807098E+00  2.728031E+00  2.653296E+00  2.582547E+00  2.515474E+00  2.451796E+00
 2.391263E+00  2.333647E+00  2.278743E+00  2.226363E+00  2.176337E+00  2.128510E+00  2.082740E+00  2.038897E+00  1.996862E+00  1.956525E+00
 1.917786E+00  1.880552E+00  1.844736E+00  1.810259E+00  1.777047E+00  1.745031E+00  1.714150E+00  1.684342E+00  1.655553E+00  1.627733E+00
 1.600831E+00  1.574805E+00  1.549612E+00  1.525212E+00  1.501568E+00  1.478647E+00  1.456415E+00  1.434842E+00  1.413898E+00  1.393558E+00
 1.373794E+00  1.354583E+00  1.335902E+00  1.317730E+00  1.300045E+00  1.282829E+00  1.266063E+00  1.249730E+00  1.233813E+00  1.218296E+00
 1.203165E+00  1.188405E+00  1.174003E+00  1.159946E+00  1.146222E+00  1.132818E+00  1.119725E+00  1.106931E+00  1.094426E+00  1.082200E+00
 1.070245E+00  1.058551E+00  1.047110E+00  1.035914E+00  1.024955E+00  1.014225E+00  1.003719E+00  9.934281E-01  9.833472E-01  9.734692E-01
 1.711986E+02  9.832168E+01  4.592054E+01  2.937043E+01  2.194744E+01  1.771863E+01  1.492841E+01  1.292049E+01  1.139569E+01  1.019487E+01
 9.223605E+00  8.421489E+00  7.747774E+00  7.173886E+00  6.679158E+00  6.248267E+00  5.869604E+00  5.534216E+00  5.235085E+00  4.966634E+00
 4.724373E+00  4.504647E+00  4.304453E+00  4.121295E+00  3.953089E+00  3.798076E+00  3.654761E+00  3.521869E+00  3.398303E+00  3.283114E+00
 3.175478E+00  3.074677E+00  2.980078E+00  2.891127E+00  2.807332E+00  2.728259E+00  2.653518E+00  2.582763E+00  2.515683E+00  2.452000E+00
 2.391462E+00  2.333842E+00  2.278933E+00  2.226548E+00  2.176518E+00  2.128687E+00  2.082913E+00  2.039067E+00  1.997028E+00  1.956688E+00
 1.917946E+00  1.880708E+00  1.844889E+00  1.810409E+00  1.777195E+00  1.745177E+00  1.714292E+00  1.684482E+00  1.655691E+00  1.627868E+00
 1.600965E+00  1.574936E+00  1.549741E+00  1.525339E+00  1.501693E+00  1.478770E+00  1.456536E+00  1.434961E+00  1.414016E+00  1.393674E+00
 1.373908E+00  1.354696E+00  1.336014E+00  1.317840E+00  1.300154E+00  1.282936E+00  1.266169E+00  1.249834E+00  1.233915E+00  1.218397E+00
 1.203265E+00  1.188504E+00  1.174101E+00  1.160042E+00  1.146317E+00  1.132913E+00  1.119818E+00  1.107023E+00  1.094517E+00  1.082291E+00
 1.070334E+00  1.058639E+00  1.047197E+00  1.036000E+00  1.025039E+00  1.014308E+00  1.003799E+00  9.935054E-01  9.834198E-01  9.735367E-01
 1.649961E+02  9.534065E+01  4.519088E+01  2.920037E+01  2.190676E+01  1.770920E+01  1.492679E+01  1.292081E+01  1.139643E+01  1.019566E+01
 9.224360E+00  8.422188E+00  7.748420E+00  7.174485E+00  6.679716E+00  6.248788E+00  5.870093E+00  5.534677E+00  5.235522E+00  4.967048E+00
 4.724767E+00  4.505023E+00  4.304811E+00  4.121639E+00  3.953419E+00  3.798392E+00  3.655066E+00  3.522163E+00  3.398586E+00  3.283388E+00
 3.175743E+00  3.074933E+00  2.980326E+00  2.891368E+00  2.807566E+00  2.728486E+00  2.653739E+00  2.582978E+00  2.515893E+00  2.452205E+00
 2.391662E+00  2.334036E+00  2.279122E+00  2.226734E+00  2.176699E+00  2.128864E+00  2.083087E+00  2.039236E+00  1.997195E+00  1.956851E+00
 1.918106E+00  1.880865E+00  1.845043E+00  1.810560E+00  1.777343E+00  1.745322E+00  1.714435E+00  1.684623E+00  1.655829E+00  1.628004E+00
 1.601098E+00  1.575067E+00  1.549870E+00  1.525466E+00  1.501818E+00  1.478893E+00  1.456658E+00  1.435081E+00  1.414134E+00  1.393790E+00
 1.374023E+00  1.354809E+00  1.336125E+00  1.317949E+00  1.300262E+00  1.283043E+00  1.266274E+00  1.249938E+00  1.234018E+00  1.218499E+00
 1.203365E+00  1.188603E+00  1.174198E+00  1.160139E+00  1.146412E+00  1.133007E+00  1.119911E+00  1.107115E+00  1.094608E+00  1.082381E+00
 1.070423E+00  1.058727E+00  1.047284E+00  1.036086E+00  1.025124E+00  1.014391E+00  1.003880E+00  9.935828E-01  9.834924E-01  9.736041E-01
 1.517529E+02  8.915457E+01  4.378159E+01  2.887529E+01  2.182789E+01  1.768993E+01  1.492257E+01  1.292042E+01  1.139699E+01  1.019641E+01
 9.225101E+00  8.422883E+00  7.749065E+00  7.175082E+00  6.680273E+00  6.249309E+00  5.870583E+00  5.535139E+00  5.235958E+00  4.967462E+00
 4.725161E+00  4.505398E+00  4.305170E+00  4.121982E+00  3.953748E+00  3.798709E+00  3.655370E+00  3.522456E+00  3.398869E+00  3.283661E+00
 3.176007E+00  3.075189E+00  2.980574E+00  2.891608E+00  2.807800E+00  2.728713E+00  2.653960E+00  2.583193E+00  2.516102E+00  2.452409E+00
 2.391861E+00  2.334230E+00  2.279312E+00  2.226919E+00  2.176880E+00  2.129041E+00  2.083260E+00  2.039406E+00  1.997361E+00  1.957014E+00
 1.918266E+00  1.881022E+00  1.845197E+00  1.810711E+00  1.777491E+00  1.745468E+00  1.714578E+00  1.684763E+00  1.655967E+00  1.628139E+00
 1.601231E+00  1.575199E+00  1.549999E+00  1.525593E+00  1.501943E+00  1.479016E+00  1.456779E+00  1.435200E+00  1.414252E+00  1.393906E+00
 1.374137E+00  1.354922E+00  1.336236E+00  1.318059E+00  1.300370E+00  1.283150E+00  1.266379E+00  1.250042E+00  1.234121E+00  1.218600E+00
 1.203465E+00  1.188702E+00  1.174296E+00  1.160236E+00  1.146508E+00  1.133101E+00  1.120005E+00  1.107207E+00  1.094699E+00  1.082471E+00
 1.070512E+00  1.058815E+00  1.047371E+00  1.036172E+00  1.025209E+00  1.014474E+00  1.003961E+00  9.936602E-01  9.835650E-01  9.736711E-01
 1.296782E+02  7.931073E+01  4.181608E+01  2.842973E+01  2.171913E+01  1.766290E+01  1.491628E+01  1.291948E+01  1.139739E+01  1.019711E+01
 9.225831E+00  8.423575E+00  7.749708E+00  7.175680E+00  6.680829E+00  6.249830E+00  5.871072E+00  5.535600E+00  5.236394E+00  4.967876E+00
 4.725554E+00  4.505773E+00  4.305528E+00  4.122325E+00  3.954077E+00  3.799025E+00  3.655675E+00  3.522749E+00  3.399152E+00  3.283934E+00
 3.176272E+00  3.075445E+00  2.980822E+00  2.891849E+00  2.808034E+00  2.728940E+00  2.654180E+00  2.583408E+00  2.516312E+00  2.452613E+00
 2.392060E+00  2.334425E+00  2.279502E+00  2.227104E+00  2.177062E+00  2.129219E+00  2.083433E+00  2.039576E+00  1.997527E+00  1.957177E+00
 1.918425E+00  1.881178E+00  1.845350E+00  1.810862E+00  1.777639E+00  1.745613E+00  1.714721E+00  1.684903E+00  1.656105E+00  1.628275E+00
 1.601365E+00  1.575330E+00  1.550128E+00  1.525720E+00  1.502068E+00  1.479139E+00  1.456900E+00  1.435320E+00  1.414369E+00  1.394022E+00
 1.374252E+00  1.355034E+00  1.336347E+00  1.318169E+00  1.300478E+00  1.283256E+00  1.266485E+00  1.250146E+00  1.234224E+00  1.218702E+00
 1.203565E+00  1.188801E+00  1.174394E+00  1.160332E+00  1.146603E+00  1.133196E+00  1.120098E+00  1.107299E+00  1.094790E+00  1.082561E+00
 1.070601E+00  1.058903E+00  1.047458E+00  1.036257E+00  1.025293E+00  1.014557E+00  1.004042E+00  9.937379E-01  9.836376E-01  9.737374E-01
 9.598692E+01  6.517052E+01  3.952117E+01  2.791273E+01  2.159185E+01  1.763097E+01  1.490869E+01  1.291819E+01  1.139770E+01  1.019779E+01
 9.226552E+00  8.424264E+00  7.750350E+00  7.176277E+00  6.681386E+00  6.250350E+00  5.871561E+00  5.536061E+00  5.236830E+00  4.968289E+00