# vtk DataFile Version 2.0
PFLOTRAN output
ASCII
DATASET UNSTRUCTURED_GRID
POINTS          462 float
 0.000000E+00  0.000000E+00  0.000000E+00
 1.000000E+01  0.000000E+00  0.000000E+00
 2.000000E+01  0.000000E+00  0.000000E+00
 3.000000E+01  0.000000E+00  0.000000E+00
 4.000000E+01  0.000000E+00  0.000000E+00
 5.000000E+01  0.000000E+00  0.000000E+00
 6.000000E+01  0.000000E+00  0.000000E+00
 7.000000E+01  0.000000E+00  0.000000E+00
 8.000000E+01  0.000000E+00  0.000000E+00
 9.000000E+01  0.000000E+00  0.000000E+00
 1.000000E+02  0.000000E+00  0.000000E+00
 0.000000E+00  1.000000E+00  0.000000E+00
 1.000000E+01  1.000000E+00  0.000000E+00
 2.000000E+01  1.000000E+00  0.000000E+00
 3.000000E+01  1.000000E+00  0.000000E+00
 4.000000E+01  1.000000E+00  0.000000E+00
 5.000000E+01  1.000000E+00  0.000000E+00
 6.000000E+01  1.000000E+00  0.000000E+00
 7.000000E+01  1.000000E+00  0.000000E+00
 8.000000E+01  1.000000E+00  0.000000E+00
 9.000000E+01  1.000000E+00  0.000000E+00
 1.000000E+02  1.000000E+00  0.000000E+00
 0.000000E+00  0.000000E+00  5.000000E+00
 1.000000E+01  0.000000E+00  5.000000E+00
 2.000000E+01  0.000000E+00  5.000000E+00
 3.000000E+01  0.000000E+00  5.000000E+00
 4.000000E+01  0.000000E+00  5.000000E+00
 5.000000E+01  0.000000E+00  5.000000E+00
 6.000000E+01  0.000000E+00  5.000000E+00
 7.000000E+01  0.000000E+00  5.000000E+00
 8.000000E+01  0.000000E+00  5.000000E+00
 9.000000E+01  0.000000E+00  5.000000E+00
 1.000000E+02  0.000000E+00  5.000000E+00
 0.000000E+00  1.000000E+00  5.000000E+00
 1.000000E+01  1.000000E+00  5.000000E+00
 2.000000E+01  1.000000E+00  5.000000E+00
 3.000000E+01  1.000000E+00  5.000000E+00
 4.000000E+01  1.000000E+00  5.000000E+00
 5.000000E+01  1.000000E+00  5.000000E+00
 6.000000E+01  1.000000E+00  5.000000E+00
 7.000000E+01  1.000000E+00  5.000000E+00
 8.000000E+01  1.000000E+00  5.000000E+00
 9.000000E+01  1.000000E+00  5.000000E+00
 1.000000E+02  1.000000E+00  5.000000E+00
 0.000000E+00  0.000000E+00  1.000000E+01
 1.000000E+01  0.000000E+00  1.000000E+01
 2.000000E+01  0.000000E+00  1.000000E+01
 3.000000E+01  0.000000E+00  1.000000E+01
 4.000000E+01  0.000000E+00  1.000000E+01
 5.000000E+01  0.000000E+00  1.000000E+01
 6.000000E+01  0.000000E+00  1.000000E+01
 7.000000E+01  0.000000E+00  1.000000E+01
 8.000000E+01  0.000000E+00  1.000000E+01
 9.000000E+01  0.000000E+00  1.000000E+01
 1.000000E+02  0.000000E+00  1.000000E+01
 0.000000E+00  1.000000E+00  1.000000E+01
 1.000000E+01  1.000000E+00  1.000000E+01
 2.000000E+01  1.000000E+00  1.000000E+01
 3.000000E+01  1.000000E+00  1.000000E+01
 4.000000E+01  1.000000E+00  1.000000E+01
 5.000000E+01  1.000000E+00  1.000000E+01
 6.000000E+01  1.000000E+00  1.000000E+01
 7.000000E+01  1.000000E+00  1.000000E+01
 8.000000E+01  1.000000E+00  1.000000E+01
 9.000000E+01  1.000000E+00  1.000000E+01
 1.000000E+02  1.000000E+00  1.000000E+01
 0.000000E+00  0.000000E+00  1.500000E+01
 1.000000E+01  0.000000E+00  1.500000E+01
 2.000000E+01  0.000000E+00  1.500000E+01
 3.000000E+01  0.000000E+00  1.500000E+01
 4.000000E+01  0.000000E+00  1.500000E+01
 5.000000E+01  0.000000E+00  1.500000E+01
 6.000000E+01  0.000000E+00  1.500000E+01
 7.000000E+01  0.000000E+00  1.500000E+01
 8.000000E+01  0.000000E+00  1.500000E+01
 9.000000E+01  0.000000E+00  1.500000E+01
 1.000000E+02  0.000000E+00  1.500000E+01
 0.000000E+00  1.000000E+00  1.500000E+01
 1.000000E+01  1.000000E+00  1.500000E+01
 2.000000E+01  1.000000E+00  1.500000E+01
 3.000000E+01  1.000000E+00  1.500000E+01
 4.000000E+01  1.000000E+00  1.500000E+01
 5.000000E+01  1.000000E+00  1.500000E+01
 6.000000E+01  1.000000E+00  1.500000E+01
 7.000000E+01  1.000000E+00  1.500000E+01
 8.000000E+01  1.000000E+00  1.500000E+01
 9.000000E+01  1.000000E+00  1.500000E+01
 1.000000E+02  1.000000E+00  1.500000E+01
 0.000000E+00  0.000000E+00  2.000000E+01
 1.000000E+01  0.000000E+00  2.000000E+01
 2.000000E+01  0.000000E+00  2.000000E+01
 3.000000E+01  0.000000E+00  2.000000E+01
 4.000000E+01  0.000000E+00  2.000000E+01
 5.000000E+01  0.000000E+00  2.000000E+01
 6.000000E+01  0.000000E+00  2.000000E+01
 7.000000E+01  0.000000E+00  2.000000E+01
 8.000000E+01  0.000000E+00  2.000000E+01
 9.000000E+01  0.000000E+00  2.000000E+01
 1.000000E+02  0.000000E+00  2.000000E+01
 0.000000E+00  1.000000E+00  2.000000E+01
 1.000000E+01  1.000000E+00  2.000000E+01
 2.000000E+01  1.000000E+00  2.000000E+01
 3.000000E+01  1.000000E+00  2.000000E+01
 4.000000E+01  1.000000E+00  2.000000E+01
 5.000000E+01  1.000000E+00  2.000000E+01
 6.000000E+01  1.000000E+00  2.000000E+01
 7.000000E+01  1.000000E+00  2.000000E+01
 8.000000E+01  1.000000E+00  2.000000E+01
 9.000000E+01  1.000000E+00  2.000000E+01
 1.000000E+02  1.000000E+00  2.000000E+01
 0.000000E+00  0.000000E+00  2.500000E+01
 1.000000E+01  0.000000E+00  2.500000E+01
 2.000000E+01  0.000000E+00  2.500000E+01
 3.000000E+01  0.000000E+00  2.500000E+01
 4.000000E+01  0.000000E+00  2.500000E+01
 5.000000E+01  0.000000E+00  2.500000E+01
 6.000000E+01  0.000000E+00  2.500000E+01
 7.000000E+01  0.000000E+00  2.500000E+01
 8.000000E+01  0.000000E+00  2.500000E+01
 9.000000E+01  0.000000E+00  2.500000E+01
 1.000000E+02  0.000000E+00  2.500000E+01
 0.000000E+00  1.000000E+00  2.500000E+01
 1.000000E+01  1.000000E+00  2.500000E+01
 2.000000E+01  1.000000E+00  2.500000E+01
 3.000000E+01  1.000000E+00  2.500000E+01
 4.000000E+01  1.000000E+00  2.500000E+01
 5.000000E+01  1.000000E+00  2.500000E+01
 6.000000E+01  1.000000E+00  2.500000E+01
 7.000000E+01  1.000000E+00  2.500000E+01
 8.000000E+01  1.000000E+00  2.500000E+01
 9.000000E+01  1.000000E+00  2.500000E+01
 1.000000E+02  1.000000E+00  2.500000E+01
 0.000000E+00  0.000000E+00  3.000000E+01
 1.000000E+01  0.000000E+00  3.000000E+01
 2.000000E+01  0.000000E+00  3.000000E+01
 3.000000E+01  0.000000E+00  3.000000E+01
 4.000000E+01  0.000000E+00  3.000000E+01
 5.000000E+01  0.000000E+00  3.000000E+01
 6.000000E+01  0.000000E+00  3.000000E+01
 7.000000E+01  0.000000E+00  3.000000E+01
 8.000000E+01  0.000000E+00  3.000000E+01
 9.000000E+01  0.000000E+00  3.000000E+01
 1.000000E+02  0.000000E+00  3.000000E+01
 0.000000E+00  1.000000E+00  3.000000E+01
 1.000000E+01  1.000000E+00  3.000000E+01
 2.000000E+01  1.000000E+00  3.000000E+01
 3.000000E+01  1.000000E+00  3.000000E+01
 4.000000E+01  1.000000E+00  3.000000E+01
 5.000000E+01  1.000000E+00  3.000000E+01
 6.000000E+01  1.000000E+00  3.000000E+01
 7.000000E+01  1.000000E+00  3.000000E+01
 8.000000E+01  1.000000E+00  3.000000E+01
 9.000000E+01  1.000000E+00  3.000000E+01
 1.000000E+02  1.000000E+00  3.000000E+01
 0.000000E+00  0.000000E+00  3.500000E+01
 1.000000E+01  0.000000E+00  3.500000E+01
 2.000000E+01  0.000000E+00  3.500000E+01
 3.000000E+01  0.000000E+00  3.500000E+01
 4.000000E+01  0.000000E+00  3.500000E+01
 5.000000E+01  0.000000E+00  3.500000E+01
 6.000000E+01  0.000000E+00  3.500000E+01
 7.000000E+01  0.000000E+00  3.500000E+01
 8.000000E+01  0.000000E+00  3.500000E+01
 9.000000E+01  0.000000E+00  3.500000E+01
 1.000000E+02  0.000000E+00  3.500000E+01
 0.000000E+00  1.000000E+00  3.500000E+01
 1.000000E+01  1.000000E+00  3.500000E+01
 2.000000E+01  1.000000E+00  3.500000E+01
 3.000000E+01  1.000000E+00  3.500000E+01
 4.000000E+01  1.000000E+00  3.500000E+01
 5.000000E+01  1.000000E+00  3.500000E+01
 6.000000E+01  1.000000E+00  3.500000E+01
 7.000000E+01  1.000000E+00  3.500000E+01
 8.000000E+01  1.000000E+00  3.500000E+01
 9.000000E+01  1.000000E+00  3.500000E+01
 1.000000E+02  1.000000E+00  3.500000E+01
 0.000000E+00  0.000000E+00  4.000000E+01
 1.000000E+01  0.000000E+00  4.000000E+01
 2.000000E+01  0.000000E+00  4.000000E+01
 3.000000E+01  0.000000E+00  4.000000E+01
 4.000000E+01  0.000000E+00  4.000000E+01
 5.000000E+01  0.000000E+00  4.000000E+01
 6.000000E+01  0.000000E+00  4.000000E+01
 7.000000E+01  0.000000E+00  4.000000E+01
 8.000000E+01  0.000000E+00  4.000000E+01
 9.000000E+01  0.000000E+00  4.000000E+01
 1.000000E+02  0.000000E+00  4.000000E+01
 0.000000E+00  1.000000E+00  4.000000E+01
 1.000000E+01  1.000000E+00  4.000000E+01
 2.000000E+01  1.000000E+00  4.000000E+01
 3.000000E+01  1.000000E+00  4.000000E+01
 4.000000E+01  1.000000E+00  4.000000E+01
 5.000000E+01  1.000000E+00  4.000000E+01
 6.000000E+01  1.000000E+00  4.000000E+01
 7.000000E+01  1.000000E+00  4.000000E+01
 8.000000E+01  1.000000E+00  4.000000E+01
 9.000000E+01  1.000000E+00  4.000000E+01
 1.000000E+02  1.000000E+00  4.000000E+01
 0.000000E+00  0.000000E+00  4.500000E+01
 1.000000E+01  0.000000E+00  4.500000E+01
 2.000000E+01  0.000000E+00  4.500000E+01
 3.000000E+01  0.000000E+00  4.500000E+01
 4.000000E+01  0.000000E+00  4.500000E+01
 5.000000E+01  0.000000E+00  4.500000E+01
 6.000000E+01  0.000000E+00  4.500000E+01
 7.000000E+01  0.000000E+00  4.500000E+01
 8.000000E+01  0.000000E+00  4.500000E+01
 9.000000E+01  0.000000E+00  4.500000E+01
 1.000000E+02  0.000000E+00  4.500000E+01
 0.000000E+00  1.000000E+00  4.500000E+01
 1.000000E+01  1.000000E+00  4.500000E+01
 2.000000E+01  1.000000E+00  4.500000E+01
 3.000000E+01  1.000000E+00  4.500000E+01
 4.000000E+01  1.000000E+00  4.500000E+01
 5.000000E+01  1.000000E+00  4.500000E+01
 6.000000E+01  1.000000E+00  4.500000E+01
 7.000000E+01  1.000000E+00  4.500000E+01
 8.000000E+01  1.000000E+00  4.500000E+01
 9.000000E+01  1.000000E+00  4.500000E+01
 1.000000E+02  1.000000E+00  4.500000E+01
 0.000000E+00  0.000000E+00  5.000000E+01
 1.000000E+01  0.000000E+00  5.000000E+01
 2.000000E+01  0.000000E+00  5.000000E+01
 3.000000E+01  0.000000E+00  5.000000E+01
 4.000000E+01  0.000000E+00  5.000000E+01
 5.000000E+01  0.000000E+00  5.000000E+01
 6.000000E+01  0.000000E+00  5.000000E+01
 7.000000E+01  0.000000E+00  5.000000E+01
 8.000000E+01  0.000000E+00  5.000000E+01
 9.000000E+01  0.000000E+00  5.000000E+01
 1.000000E+02  0.000000E+00  5.000000E+01
 0.000000E+00  1.000000E+00  5.000000E+01
 1.000000E+01  1.000000E+00  5.000000E+01
 2.000000E+01  1.000000E+00  5.000000E+01
 3.000000E+01  1.000000E+00  5.000000E+01
[...]
CELL_DATA      200
SCALARS Porosity             float 1
LOOKUP_TABLE default
 4.377069E-01  4.377095E-01  4.377099E-01  4.377100E-01  4.377100E-01  4.377100E-01  4.377100E-01  4.377100E-01  4.377100E-01  4.377100E-01
 4.376820E-01  4.377055E-01  4.377094E-01  4.377099E-01  4.377100E-01  4.377100E-01  4.377100E-01  4.377100E-01  4.377100E-01  4.377100E-01
 4.375764E-01  4.376854E-01  4.377065E-01  4.377096E-01  4.377099E-01  4.377099E-01  4.377100E-01  4.377100E-01  4.377100E-01  4.377100E-01
 4.372901E-01  4.376171E-01  4.376952E-01  4.377082E-01  4.377098E-01  4.377099E-01  4.377099E-01  4.377100E-01  4.377100E-01  4.377100E-01
 4.368200E-01  4.374517E-01  4.376629E-01  4.377037E-01  4.377093E-01  4.377099E-01  4.377099E-01  4.377099E-01  4.377100E-01  4.377100E-01
 4.368022E-01  4.371792E-01  4.375950E-01  4.376933E-01  4.377081E-01  4.377098E-01  4.377099E-01  4.377099E-01  4.377100E-01  4.377100E-01
 4.388315E-01  4.370048E-01  4.375002E-01  4.376767E-01  4.377061E-01  4.377096E-01  4.377099E-01  4.377099E-01  4.377100E-01  4.377100E-01
 4.388322E-01  4.369540E-01  4.374522E-01  4.376655E-01  4.377045E-01  4.377094E-01  4.377099E-01  4.377099E-01  4.377099E-01  4.377100E-01
 4.388328E-01  4.369329E-01  4.374244E-01  4.376579E-01  4.377034E-01  4.377093E-01  4.377099E-01  4.377099E-01  4.377099E-01  4.377100E-01
 4.388329E-01  4.369244E-01  4.374114E-01  4.376541E-01  4.377028E-01  4.377092E-01  4.377099E-01  4.377099E-01  4.377099E-01  4.377099E-01
 4.388327E-01  4.369243E-01  4.374114E-01  4.376541E-01  4.377028E-01  4.377092E-01  4.377099E-01  4.377099E-01  4.377099E-01  4.377099E-01
 4.388321E-01  4.369327E-01  4.374244E-01  4.376580E-01  4.377034E-01  4.377093E-01  4.377099E-01  4.377099E-01  4.377099E-01  4.377100E-01
 4.388312E-01  4.369538E-01  4.374522E-01  4.376656E-01  4.377046E-01  4.377094E-01  4.377099E-01  4.377099E-01  4.377099E-01  4.377100E-01
 4.388302E-01  4.370045E-01  4.375003E-01  4.376768E-01  4.377061E-01  4.377096E-01  4.377099E-01  4.377099E-01  4.377100E-01  4.377100E-01
 4.368015E-01  4.371793E-01  4.375951E-01  4.376934E-01  4.377082E-01  4.377098E-01  4.377099E-01  4.377099E-01  4.377100E-01  4.377100E-01
 4.368201E-01  4.374519E-01  4.376631E-01  4.377038E-01  4.377093E-01  4.377099E-01  4.377099E-01  4.377099E-01  4.377100E-01  4.377100E-01
 4.372904E-01  4.376174E-01  4.376953E-01  4.377082E-01  4.377098E-01  4.377099E-01  4.377099E-01  4.377100E-01  4.377100E-01  4.377100E-01
 4.375767E-01  4.376856E-01  4.377066E-01  4.377096E-01  4.377099E-01  4.377099E-01  4.377099E-01  4.377100E-01  4.377100E-01  4.377100E-01
 4.376822E-01  4.377056E-01  4.377094E-01  4.377099E-01  4.377099E-01  4.377100E-01  4.377100E-01  4.377100E-01  4.377100E-01  4.377100E-01
 4.377070E-01  4.377096E-01  4.377099E-01  4.377100E-01  4.377100E-01  4.377100E-01  4.377100E-01  4.377100E-01  4.377100E-01  4.377100E-01


SCALARS Permeability         float 1
LOOKUP_TABLE default
 8.829650E-13  8.829782E-13  8.829802E-13  8.829804E-13  8.829804E-13  8.829804E-13  8.829804E-13  8.829804E-13  8.829804E-13  8.829804E-13
 8.828392E-13  8.829579E-13  8.829775E-13  8.829800E-13  8.829803E-13  8.829803E-13  8.829804E-13  8.829804E-13  8.829804E-13  8.829803E-13
 8.823055E-13  8.828561E-13  8.829628E-13  8.829784E-13  8.829801E-13  8.829803E-13  8.829803E-13  8.829803E-13  8.829804E-13  8.829803E-13
 8.808595E-13  8.825111E-13  8.829058E-13  8.829713E-13  8.829794E-13  8.829802E-13  8.829803E-13  8.829803E-13  8.829803E-13  8.829803E-13
 8.784887E-13  8.816754E-13  8.827427E-13  8.829488E-13  8.829770E-13  8.829799E-13  8.829802E-13  8.829803E-13  8.829803E-13  8.829803E-13
 8.783988E-13  8.802999E-13  8.823993E-13  8.828963E-13  8.829711E-13  8.829794E-13  8.829801E-13  8.829802E-13  8.829803E-13  8.829803E-13
 8.886603E-13  8.794201E-13  8.819205E-13  8.828123E-13  8.829609E-13  8.829784E-13  8.829800E-13  8.829802E-13  8.829803E-13  8.829803E-13
 8.886641E-13  8.791642E-13  8.816779E-13  8.827558E-13  8.829530E-13  8.829776E-13  8.829799E-13  8.829802E-13  8.829803E-13  8.829803E-13
 8.886667E-13  8.790576E-13  8.815374E-13  8.827174E-13  8.829471E-13  8.829770E-13  8.829799E-13  8.829801E-13  8.829803E-13  8.829803E-13
 8.886674E-13  8.790147E-13  8.814719E-13  8.826978E-13  8.829439E-13  8.829766E-13  8.829798E-13  8.829801E-13  8.829802E-13  8.829803E-13
 8.886663E-13  8.790144E-13  8.814719E-13  8.826978E-13  8.829439E-13  8.829766E-13  8.829798E-13  8.829801E-13  8.829802E-13  8.829803E-13
 8.886635E-13  8.790568E-13  8.815375E-13  8.827176E-13  8.829472E-13  8.829770E-13  8.829799E-13  8.829801E-13  8.829803E-13  8.829803E-13
 8.886589E-13  8.791630E-13  8.816781E-13  8.827561E-13  8.829531E-13  8.829776E-13  8.829799E-13  8.829802E-13  8.829803E-13  8.829803E-13
 8.886535E-13  8.794189E-13  8.819209E-13  8.828126E-13  8.829610E-13  8.829785E-13  8.829800E-13  8.829802E-13  8.829803E-13  8.829803E-13
 8.783953E-13  8.803004E-13  8.824000E-13  8.828967E-13  8.829712E-13  8.829794E-13  8.829801E-13  8.829802E-13  8.829803E-13  8.829803E-13
 8.784891E-13  8.816766E-13  8.827434E-13  8.829492E-13  8.829771E-13  8.829800E-13  8.829802E-13  8.829803E-13  8.829803E-13  8.829803E-13
 8.808612E-13  8.825124E-13  8.829064E-13  8.829715E-13  8.829794E-13  8.829802E-13  8.829802E-13  8.829803E-13  8.829804E-13  8.829804E-13
 8.823070E-13  8.828570E-13  8.829632E-13  8.829785E-13  8.829801E-13  8.829802E-13  8.829803E-13  8.829803E-13  8.829804E-13  8.829804E-13
 8.828400E-13  8.829584E-13  8.829777E-13  8.829800E-13  8.829803E-13  8.829803E-13  8.829803E-13  8.829804E-13  8.829804E-13  8.829804E-13
 8.829652E-13  8.829783E-13  8.829801E-13  8.829803E-13  8.829804E-13  8.829804E-13  8.829804E-13  8.829804E-13  8.829804E-13  8.829804E-13


SCALARS Liquid_Pressure      float 1
LOOKUP_TABLE default
 8.009864E+06  7.964935E+06  7.898128E+06  7.825798E+06  7.756150E+06  7.692301E+06  7.634885E+06  7.583522E+06  7.537507E+06  7.496117E+06
 7.987167E+06  7.934555E+06  7.861308E+06  7.785042E+06  7.713254E+06  7.648294E+06  7.590311E+06  7.538656E+06  7.492485E+06  7.451002E+06
 7.990795E+06  7.919824E+06  7.832721E+06  7.748456E+06  7.672452E+06  7.605339E+06  7.546264E+06  7.494049E+06  7.447580E+06  7.405920E+06
 8.030006E+06  7.922318E+06  7.811998E+06  7.715533E+06  7.633405E+06  7.563242E+06  7.502641E+06  7.449650E+06  7.402770E+06  7.360865E+06
 8.123382E+06  7.943705E+06  7.798163E+06  7.685407E+06  7.595599E+06  7.521729E+06  7.459300E+06  7.405388E+06  7.358020E+06  7.315827E+06
 8.307014E+06  7.983853E+06  7.789083E+06  7.656788E+06  7.558360E+06  7.480454E+06  7.416068E+06  7.361176E+06  7.313294E+06  7.270797E+06
 8.650357E+06  8.035345E+06  7.780825E+06  7.627959E+06  7.520894E+06  7.439036E+06  7.372756E+06  7.316923E+06  7.268550E+06  7.225763E+06
 8.823332E+06  8.068926E+06  7.767651E+06  7.596992E+06  7.482382E+06  7.397093E+06  7.329180E+06  7.272542E+06  7.223748E+06  7.180714E+06
 8.897327E+06  8.076841E+06  7.745573E+06  7.562238E+06  7.442101E+06  7.354291E+06  7.285183E+06  7.227955E+06  7.178854E+06  7.135640E+06
 8.905114E+06  8.058039E+06  7.712410E+06  7.522567E+06  7.399526E+06  7.310385E+06  7.240645E+06  7.183106E+06  7.133844E+06  7.090535E+06
 8.859895E+06  8.012863E+06  7.667251E+06  7.477416E+06  7.354380E+06  7.265242E+06  7.195504E+06  7.137967E+06  7.088705E+06  7.045396E+06
 8.761675E+06  7.941315E+06  7.610096E+06  7.426786E+06  7.306665E+06  7.218864E+06  7.149762E+06  7.092537E+06  7.043437E+06  7.000222E+06
 8.597273E+06  7.843060E+06  7.541860E+06  7.371240E+06  7.256655E+06  7.171382E+06  7.103479E+06  7.046846E+06  6.998053E+06  6.955017E+06
 8.333946E+06  7.719156E+06  7.464725E+06  7.311910E+06  7.204878E+06  7.123041E+06  7.056774E+06  7.000949E+06  6.952576E+06  6.909787E+06
 7.900366E+06  7.577365E+06  7.382685E+06  7.250446E+06  7.152057E+06  7.074176E+06  7.009807E+06  6.954923E+06  6.907043E+06  6.864543E+06
 7.626500E+06  7.446933E+06  7.301473E+06  7.188776E+06  7.099011E+06  7.025169E+06  6.962760E+06  6.908856E+06  6.861490E+06  6.819294E+06
 7.442880E+06  7.335269E+06  7.225022E+06  7.128616E+06  7.046533E+06  6.976402E+06  6.915821E+06  6.862840E+06  6.815961E+06  6.774052E+06
 7.313414E+06  7.242502E+06  7.155464E+06  7.071257E+06  6.995299E+06  6.928219E+06  6.869165E+06  6.816960E+06  6.770492E+06  6.728828E+06
 7.219521E+06  7.166955E+06  7.093769E+06  7.017560E+06  6.945820E+06  6.880895E+06  6.822933E+06  6.771287E+06  6.725118E+06  6.683631E+06
 7.151938E+06  7.107052E+06  7.040305E+06  6.968033E+06  6.898435E+06  6.834620E+06  6.777226E+06  6.725873E+06  6.679860E+06  6.638467E+06


SCALARS Temperature          float 1
LOOKUP_TABLE default
 1.500976E+02  1.501040E+02  1.501096E+02  1.501087E+02  1.500990E+02  1.500834E+02  1.500667E+02  1.500520E+02  1.500398E+02  1.500296E+02
 1.501016E+02  1.501114E+02  1.501227E+02  1.501299E+02  1.501258E+02  1.501086E+02  1.500845E+02  1.500617E+02  1.500439E+02  1.500311E+02
 1.501014E+02  1.501143E+02  1.501288E+02  1.501407E+02  1.501433E+02  1.501299E+02  1.501034E+02  1.500742E+02  1.500503E+02  1.500338E+02
 1.500964E+02  1.501148E+02  1.501332E+02  1.501484E+02  1.501560E+02  1.501478E+02  1.501218E+02  1.500880E+02  1.500584E+02  1.500375E+02
 1.500842E+02  1.501131E+02  1.501371E+02  1.501555E+02  1.501667E+02  1.501631E+02  1.501391E+02  1.501024E+02  1.500674E+02  1.500420E+02
 1.500591E+02  1.501096E+02  1.501412E+02  1.501630E+02  1.501769E+02  1.501770E+02  1.501553E+02  1.501167E+02  1.500769E+02  1.500469E+02
 1.500097E+02  1.501064E+02  1.501472E+02  1.501720E+02  1.501877E+02  1.501904E+02  1.501706E+02  1.501307E+02  1.500865E+02  1.500521E+02
 1.500032E+02  1.501139E+02  1.501578E+02  1.501833E+02  1.501995E+02  1.502035E+02  1.501849E+02  1.501436E+02  1.500956E+02  1.500571E+02
 1.500011E+02  1.501192E+02  1.501658E+02  1.501921E+02  1.502087E+02  1.502136E+02  1.501959E+02  1.501536E+02  1.501028E+02  1.500611E+02
 1.500010E+02  1.501229E+02  1.501714E+02  1.501986E+02  1.502156E+02  1.502210E+02  1.502037E+02  1.501606E+02  1.501076E+02  1.500638E+02
 1.500010E+02  1.501228E+02  1.501714E+02  1.501985E+02  1.502156E+02  1.502211E+02  1.502037E+02  1.501606E+02  1.501077E+02  1.500638E+02
 1.500025E+02  1.501224E+02  1.501705E+02  1.501978E+02  1.502151E+02  1.502202E+02  1.502020E+02  1.501585E+02  1.501059E+02  1.500628E+02
 1.500062E+02  1.501208E+02  1.501678E+02  1.501952E+02  1.502126E+02  1.502169E+02  1.501972E+02  1.501532E+02  1.501018E+02  1.500604E+02
 1.500148E+02  1.501179E+02  1.501632E+02  1.501907E+02  1.502081E+02  1.502109E+02  1.501891E+02  1.501447E+02  1.500954E+02  1.500567E+02
 1.500774E+02  1.501320E+02  1.501670E+02  1.501910E+02  1.502062E+02  1.502057E+02  1.501802E+02  1.501350E+02  1.500881E+02  1.500526E+02
 1.501157E+02  1.501477E+02  1.501741E+02  1.501941E+02  1.502060E+02  1.502004E+02  1.501701E+02  1.501242E+02  1.500801E+02  1.500481E+02
 1.501411E+02  1.501620E+02  1.501822E+02  1.501985E+02  1.502056E+02  1.501929E+02  1.501574E+02  1.501116E+02  1.500714E+02  1.500436E+02
 1.501593E+02  1.501742E+02  1.501899E+02  1.502022E+02  1.502022E+02  1.501805E+02  1.501405E+02  1.500971E+02  1.500623E+02  1.500391E+02
 1.501728E+02  1.501840E+02  1.501959E+02  1.502012E+02  1.501899E+02  1.501591E+02  1.501184E+02  1.500810E+02  1.500534E+02  1.500351E+02
 1.501812E+02  1.501871E+02  1.501892E+02  1.501797E+02  1.501557E+02  1.501227E+02  1.500902E+02  1.500641E+02  1.500453E+02  1.500319E+02


SCALARS pH                   float 1
LOOKUP_TABLE default
 6.145668E+00  6.145693E+00  6.145712E+00  6.145712E+00  6.145667E+00  6.145545E+00  6.145329E+00  6.145046E+00  6.144762E+00  6.144532E+00
 6.145646E+00  6.145676E+00  6.145706E+00  6.145728E+00  6.145726E+00  6.145669E+00  6.145518E+00  6.145265E+00  6.144957E+00  6.144669E+00
 6.145610E+00  6.145664E+00  6.145698E+00  6.145727E+00  6.145741E+00  6.145715E+00  6.145607E+00  6.145391E+00  6.145090E+00  6.144777E+00
 6.145303E+00  6.145640E+00  6.145691E+00  6.145725E+00  6.145748E+00  6.145739E+00  6.145661E+00  6.145477E+00  6.145192E+00  6.144867E+00
 6.141929E+00  6.145495E+00  6.145680E+00  6.145724E+00  6.145752E+00  6.145755E+00  6.145697E+00  6.145538E+00  6.145270E+00  6.144943E+00
 6.115285E+00  6.144246E+00  6.145638E+00  6.145724E+00  6.145758E+00  6.145769E+00  6.145725E+00  6.145585E+00  6.145332E+00  6.145004E+00
 5.979670E+00  6.136862E+00  6.145409E+00  6.145726E+00  6.145769E+00  6.145784E+00  6.145750E+00  6.145623E+00  6.145381E+00  6.145054E+00
 5.979654E+00  6.135055E+00  6.145318E+00  6.145739E+00  6.145785E+00  6.145803E+00  6.145774E+00  6.145654E+00  6.145419E+00  6.145092E+00
 5.979654E+00  6.134208E+00  6.145265E+00  6.145751E+00  6.145799E+00  6.145818E+00  6.145792E+00  6.145677E+00  6.145446E+00  6.145119E+00
 5.979655E+00  6.133867E+00  6.145242E+00  6.145759E+00  6.145809E+00  6.145828E+00  6.145803E+00  6.145691E+00  6.145461E+00  6.145134E+00
 5.979652E+00  6.133862E+00  6.145239E+00  6.145757E+00  6.145807E+00  6.145827E+00  6.145803E+00  6.145690E+00  6.145461E+00  6.145134E+00
 5.979649E+00  6.134200E+00  6.145261E+00  6.145750E+00  6.145800E+00  6.145820E+00  6.145793E+00  6.145677E+00  6.145445E+00  6.145117E+00
 5.979649E+00  6.135044E+00  6.145313E+00  6.145740E+00  6.145789E+00  6.145808E+00  6.145777E+00  6.145655E+00  6.145417E+00  6.145089E+00
 5.979668E+00  6.136852E+00  6.145407E+00  6.145730E+00  6.145777E+00  6.145794E+00  6.145756E+00  6.145624E+00  6.145378E+00  6.145049E+00
 6.115294E+00  6.144247E+00  6.145645E+00  6.145737E+00  6.145774E+00  6.145785E+00  6.145736E+00  6.145588E+00  6.145329E+00  6.144999E+00
 6.141942E+00  6.145509E+00  6.145700E+00  6.145747E+00  6.145778E+00  6.145778E+00  6.145712E+00  6.145542E+00  6.145267E+00  6.144937E+00
 6.145326E+00  6.145668E+00  6.145724E+00  6.145761E+00  6.145783E+00  6.145768E+00  6.145677E+00  6.145480E+00  6.145187E+00  6.144861E+00
 6.145646E+00  6.145706E+00  6.145744E+00  6.145774E+00  6.145784E+00  6.145745E+00  6.145621E+00  6.145391E+00  6.145084E+00  6.144769E+00
 6.145696E+00  6.145731E+00  6.145762E+00  6.145781E+00  6.145768E+00  6.145692E+00  6.145523E+00  6.145258E+00  6.144947E+00  6.144661E+00
 6.145726E+00  6.145752E+00  6.145766E+00  6.145753E+00  6.145689E+00  6.145547E+00  6.145318E+00  6.145031E+00  6.144749E+00  6.144524E+00


SCALARS Total_H+             float 1
LOOKUP_TABLE default
-3.046830E-03 -3.045680E-03 -3.044422E-03 -3.043292E-03 -3.042552E-03 -3.042434E-03 -3.043064E-03 -3.044325E-03 -3.045841E-03 -3.047232E-03
-3.048037E-03 -3.046905E-03 -3.045549E-03 -3.044128E-03 -3.042949E-03 -3.042327E-03 -3.042478E-03 -3.043438E-03 -3.044941E-03 -3.046547E-03
-3.048799E-03 -3.047592E-03 -3.046218E-03 -3.044713E-03 -3.043309E-03 -3.042380E-03 -3.042219E-03 -3.042928E-03 -3.044330E-03 -3.046014E-03
-3.048451E-03 -3.048153E-03 -3.046676E-03 -3.045126E-03 -3.043596E-03 -3.042445E-03 -3.042044E-03 -3.042554E-03 -3.043852E-03 -3.045563E-03
-3.031153E-03 -3.048233E-03 -3.047022E-03 -3.045396E-03 -3.043786E-03 -3.042475E-03 -3.041886E-03 -3.042241E-03 -3.043452E-03 -3.045176E-03
-2.882945E-03 -3.042251E-03 -3.047150E-03 -3.045526E-03 -3.043855E-03 -3.042432E-03 -3.041700E-03 -3.041945E-03 -3.043101E-03 -3.044841E-03
-2.219782E-03 -3.000865E-03 -3.046080E-03 -3.045472E-03 -3.043773E-03 -3.042282E-03 -3.041456E-03 -3.041635E-03 -3.042774E-03 -3.044548E-03
-2.219701E-03 -2.990347E-03 -3.045261E-03 -3.045202E-03 -3.043532E-03 -3.042024E-03 -3.041150E-03 -3.041305E-03 -3.042464E-03 -3.044292E-03
-2.219625E-03 -2.985302E-03 -3.044681E-03 -3.044958E-03 -3.043306E-03 -3.041791E-03 -3.040888E-03 -3.041035E-03 -3.042220E-03 -3.044098E-03
-2.219599E-03 -2.983224E-03 -3.044352E-03 -3.044772E-03 -3.043122E-03 -3.041601E-03 -3.040688E-03 -3.040843E-03 -3.042059E-03 -3.043979E-03
-2.219642E-03 -2.983258E-03 -3.044377E-03 -3.044789E-03 -3.043133E-03 -3.041608E-03 -3.040693E-03 -3.040846E-03 -3.042060E-03 -3.043979E-03
-2.219734E-03 -2.985307E-03 -3.044602E-03 -3.044826E-03 -3.043142E-03 -3.041614E-03 -3.040725E-03 -3.040912E-03 -3.042148E-03 -3.044066E-03
-2.219870E-03 -2.990302E-03 -3.045058E-03 -3.044905E-03 -3.043179E-03 -3.041653E-03 -3.040814E-03 -3.041058E-03 -3.042322E-03 -3.044232E-03
-2.219993E-03 -3.000721E-03 -3.045712E-03 -3.044977E-03 -3.043208E-03 -3.041704E-03 -3.040947E-03 -3.041271E-03 -3.042570E-03 -3.044464E-03
-2.882758E-03 -3.041745E-03 -3.046471E-03 -3.044740E-03 -3.043012E-03 -3.041605E-03 -3.041002E-03 -3.041466E-03 -3.042841E-03 -3.044737E-03
-3.030442E-03 -3.047312E-03 -3.045972E-03 -3.044264E-03 -3.042624E-03 -3.041382E-03 -3.041008E-03 -3.041670E-03 -3.043158E-03 -3.045063E-03
-3.047251E-03 -3.046805E-03 -3.045231E-03 -3.043625E-03 -3.042107E-03 -3.041114E-03 -3.041043E-03 -3.041945E-03 -3.043557E-03 -3.045457E-03
-3.047134E-03 -3.045815E-03 -3.044372E-03 -3.042846E-03 -3.041538E-03 -3.040904E-03 -3.041198E-03 -3.042360E-03 -3.044079E-03 -3.045931E-03
-3.045924E-03 -3.044712E-03 -3.043327E-03 -3.041972E-03 -3.041053E-03 -3.040903E-03 -3.041603E-03 -3.043009E-03 -3.044777E-03 -3.046503E-03
-3.044332E-03 -3.043187E-03 -3.042052E-03 -3.041226E-03 -3.040982E-03 -3.041439E-03 -3.042558E-03 -3.044130E-03 -3.045792E-03 -3.047231E-03


SCALARS Total_SiO2(aq)       float 1
LOOKUP_TABLE default
 1.040369E-02  1.040148E-02  1.040155E-02  1.040144E-02  1.040062E-02  1.039929E-02  1.039785E-02  1.039656E-02  1.039549E-02  1.039462E-02
 1.042997E-02  1.040632E-02  1.040321E-02  1.040330E-02  1.040292E-02  1.040147E-02  1.039941E-02  1.039743E-02  1.039587E-02  1.039476E-02
 1.053921E-02  1.042757E-02  1.040677E-02  1.040455E-02  1.040444E-02  1.040330E-02  1.040105E-02  1.039852E-02  1.039645E-02  1.039500E-02
 1.083946E-02  1.049830E-02  1.041893E-02  1.040668E-02  1.040566E-02  1.040483E-02  1.040263E-02  1.039973E-02  1.039715E-02  1.039534E-02
 1.142068E-02  1.067117E-02  1.045271E-02  1.041191E-02  1.040705E-02  1.040618E-02  1.040412E-02  1.040098E-02  1.039795E-02  1.039574E-02
 1.223757E-02  1.098660E-02  1.052385E-02  1.042334E-02  1.040915E-02  1.040747E-02  1.040551E-02  1.040222E-02  1.039878E-02  1.039618E-02
 1.307368E-02  1.139847E-02  1.062827E-02  1.044140E-02  1.041216E-02  1.040881E-02  1.040684E-02  1.040342E-02  1.039962E-02  1.039664E-02
 1.307254E-02  1.150740E-02  1.068152E-02  1.045395E-02  1.041479E-02  1.041009E-02  1.040808E-02  1.040454E-02  1.040041E-02  1.039708E-02
 1.307187E-02  1.155599E-02  1.071266E-02  1.046259E-02  1.041679E-02  1.041108E-02  1.040903E-02  1.040541E-02  1.040103E-02  1.039743E-02
 1.307171E-02  1.157571E-02  1.072735E-02  1.046718E-02  1.041803E-02  1.041179E-02  1.040971E-02  1.040601E-02  1.040146E-02  1.039767E-02
 1.307195E-02  1.157578E-02  1.072735E-02  1.046717E-02  1.041803E-02  1.041179E-02  1.040971E-02  1.040601E-02  1.040146E-02  1.039767E-02
 1.307265E-02  1.155641E-02  1.071304E-02  1.046305E-02  1.041732E-02  1.041164E-02  1.040956E-02  1.040583E-02  1.040131E-02  1.039758E-02
 1.307385E-02  1.150818E-02  1.068231E-02  1.045491E-02  1.041588E-02  1.041123E-02  1.040914E-02  1.040537E-02  1.040094E-02  1.039737E-02
 1.307546E-02  1.139961E-02  1.062954E-02  1.044292E-02  1.041387E-02  1.041055E-02  1.040843E-02  1.040464E-02  1.040039E-02  1.039704E-02
 1.223945E-02  1.098835E-02  1.052587E-02  1.042564E-02  1.041161E-02  1.040992E-02  1.040766E-02  1.040381E-02  1.039975E-02  1.039668E-02
 1.142310E-02  1.067381E-02  1.045568E-02  1.041512E-02  1.041038E-02  1.040937E-02  1.040680E-02  1.040287E-02  1.039905E-02  1.039628E-02
 1.084283E-02  1.050201E-02  1.042294E-02  1.041089E-02  1.040988E-02  1.040872E-02  1.040571E-02  1.040178E-02  1.039829E-02  1.039588E-02
 1.054378E-02  1.043244E-02  1.041187E-02  1.040977E-02  1.040948E-02  1.040767E-02  1.040427E-02  1.040053E-02  1.039750E-02  1.039548E-02
 1.043581E-02  1.041239E-02  1.040940E-02  1.040939E-02  1.040844E-02  1.040585E-02  1.040236E-02  1.039912E-02  1.039671E-02  1.039512E-02