# vtk DataFile Version 2.0
PFLOTRAN output
ASCII
DATASET UNSTRUCTURED_GRID
POINTS          462 float
 0.000000E+00  0.000000E+00  0.000000E+00
 1.000000E+01  0.000000E+00  0.000000E+00
 2.000000E+01  0.000000E+00  0.000000E+00
 3.000000E+01  0.000000E+00  0.000000E+00
 4.000000E+01  0.000000E+00  0.000000E+00
 5.000000E+01  0.000000E+00  0.000000E+00
 6.000000E+01  0.000000E+00  0.000000E+00
 7.000000E+01  0.000000E+00  0.000000E+00
 8.000000E+01  0.000000E+00  0.000000E+00
 9.000000E+01  0.000000E+00  0.000000E+00
 1.000000E+02  0.000000E+00  0.000000E+00
 0.000000E+00  1.000000E+00  0.000000E+00
 1.000000E+01  1.000000E+00  0.000000E+00
 2.000000E+01  1.000000E+00  0.000000E+00
 3.000000E+01  1.000000E+00  0.000000E+00
 4.000000E+01  1.000000E+00  0.000000E+00
 5.000000E+01  1.000000E+00  0.000000E+00
 6.000000E+01  1.000000E+00  0.000000E+00
 7.000000E+01  1.000000E+00  0.000000E+00
 8.000000E+01  1.000000E+00  0.000000E+00
 9.000000E+01  1.000000E+00  0.000000E+00
 1.000000E+02  1.000000E+00  0.000000E+00
 0.000000E+00  0.000000E+00  5.000000E+00
 1.000000E+01  0.000000E+00  5.000000E+00
 2.000000E+01  0.000000E+00  5.000000E+00
 3.000000E+01  0.000000E+00  5.000000E+00
 4.000000E+01  0.000000E+00  5.000000E+00
 5.000000E+01  0.000000E+00  5.000000E+00
 6.000000E+01  0.000000E+00  5.000000E+00
 7.000000E+01  0.000000E+00  5.000000E+00
 8.000000E+01  0.000000E+00  5.000000E+00
 9.000000E+01  0.000000E+00  5.000000E+00
 1.000000E+02  0.000000E+00  5.000000E+00
 0.000000E+00  1.000000E+00  5.000000E+00
 1.000000E+01  1.000000E+00  5.000000E+00
 2.000000E+01  1.000000E+00  5.000000E+00
 3.000000E+01  1.000000E+00  5.000000E+00
 4.000000E+01  1.000000E+00  5.000000E+00
 5.000000E+01  1.000000E+00  5.000000E+00
 6.000000E+01  1.000000E+00  5.000000E+00
 7.000000E+01  1.000000E+00  5.000000E+00
 8.000000E+01  1.000000E+00  5.000000E+00
 9.000000E+01  1.000000E+00  5.000000E+00
 1.000000E+02  1.000000E+00  5.000000E+00
 0.000000E+00  0.000000E+00  1.000000E+01
 1.000000E+01  0.000000E+00  1.000000E+01
 2.000000E+01  0.000000E+00  1.000000E+01
 3.000000E+01  0.000000E+00  1.000000E+01
 4.000000E+01  0.000000E+00  1.000000E+01
 5.000000E+01  0.000000E+00  1.000000E+01
 6.000000E+01  0.000000E+00  1.000000E+01
 7.000000E+01  0.000000E+00  1.000000E+01
 8.000000E+01  0.000000E+00  1.000000E+01
 9.000000E+01  0.000000E+00  1.000000E+01
 1.000000E+02  0.000000E+00  1.000000E+01
 0.000000E+00  1.000000E+00  1.000000E+01
 1.000000E+01  1.000000E+00  1.000000E+01
 2.000000E+01  1.000000E+00  1.000000E+01
 3.000000E+01  1.000000E+00  1.000000E+01
 4.000000E+01  1.000000E+00  1.000000E+01
 5.000000E+01  1.000000E+00  1.000000E+01
 6.000000E+01  1.000000E+00  1.000000E+01
 7.000000E+01  1.000000E+00  1.000000E+01
 8.000000E+01  1.000000E+00  1.000000E+01
 9.000000E+01  1.000000E+00  1.000000E+01
 1.000000E+02  1.000000E+00  1.000000E+01
 0.000000E+00  0.000000E+00  1.500000E+01
 1.000000E+01  0.000000E+00  1.500000E+01
 2.000000E+01  0.000000E+00  1.500000E+01
 3.000000E+01  0.000000E+00  1.500000E+01
 4.000000E+01  0.000000E+00  1.500000E+01
 5.000000E+01  0.000000E+00  1.500000E+01
 6.000000E+01  0.000000E+00  1.500000E+01
 7.000000E+01  0.000000E+00  1.500000E+01
 8.000000E+01  0.000000E+00  1.500000E+01
 9.000000E+01  0.000000E+00  1.500000E+01
 1.000000E+02  0.000000E+00  1.500000E+01
 0.000000E+00  1.000000E+00  1.500000E+01
 1.000000E+01  1.000000E+00  1.500000E+01
 2.000000E+01  1.000000E+00  1.500000E+01
 3.000000E+01  1.000000E+00  1.500000E+01
 4.000000E+01  1.000000E+00  1.500000E+01
 5.000000E+01  1.000000E+00  1.500000E+01
 6.000000E+01  1.000000E+00  1.500000E+01
 7.000000E+01  1.000000E+00  1.500000E+01
 8.000000E+01  1.000000E+00  1.500000E+01
 9.000000E+01  1.000000E+00  1.500000E+01
 1.000000E+02  1.000000E+00  1.500000E+01
 0.000000E+00  0.000000E+00  2.000000E+01
 1.000000E+01  0.000000E+00  2.000000E+01
 2.000000E+01  0.000000E+00  2.000000E+01
 3.000000E+01  0.000000E+00  2.000000E+01
 4.000000E+01  0.000000E+00  2.000000E+01
 5.000000E+01  0.000000E+00  2.000000E+01
 6.000000E+01  0.000000E+00  2.000000E+01
 7.000000E+01  0.000000E+00  2.000000E+01
 8.000000E+01  0.000000E+00  2.000000E+01
 9.000000E+01  0.000000E+00  2.000000E+01
 1.000000E+02  0.000000E+00  2.000000E+01
 0.000000E+00  1.000000E+00  2.000000E+01
 1.000000E+01  1.000000E+00  2.000000E+01
 2.000000E+01  1.000000E+00  2.000000E+01
 3.000000E+01  1.000000E+00  2.000000E+01
 4.000000E+01  1.000000E+00  2.000000E+01
 5.000000E+01  1.000000E+00  2.000000E+01
 6.000000E+01  1.000000E+00  2.000000E+01
 7.000000E+01  1.000000E+00  2.000000E+01
 8.000000E+01  1.000000E+00  2.000000E+01
 9.000000E+01  1.000000E+00  2.000000E+01
 1.000000E+02  1.000000E+00  2.000000E+01
 0.000000E+00  0.000000E+00  2.500000E+01
 1.000000E+01  0.000000E+00  2.500000E+01
 2.000000E+01  0.000000E+00  2.500000E+01
 3.000000E+01  0.000000E+00  2.500000E+01
 4.000000E+01  0.000000E+00  2.500000E+01
 5.000000E+01  0.000000E+00  2.500000E+01
 6.000000E+01  0.000000E+00  2.500000E+01
 7.000000E+01  0.000000E+00  2.500000E+01
 8.000000E+01  0.000000E+00  2.500000E+01
 9.000000E+01  0.000000E+00  2.500000E+01
 1.000000E+02  0.000000E+00  2.500000E+01
 0.000000E+00  1.000000E+00  2.500000E+01
 1.000000E+01  1.000000E+00  2.500000E+01
 2.000000E+01  1.000000E+00  2.500000E+01
 3.000000E+01  1.000000E+00  2.500000E+01
 4.000000E+01  1.000000E+00  2.500000E+01
 5.000000E+01  1.000000E+00  2.500000E+01
 6.000000E+01  1.000000E+00  2.500000E+01
 7.000000E+01  1.000000E+00  2.500000E+01
 8.000000E+01  1.000000E+00  2.500000E+01
 9.000000E+01  1.000000E+00  2.500000E+01
 1.000000E+02  1.000000E+00  2.500000E+01
 0.000000E+00  0.000000E+00  3.000000E+01
 1.000000E+01  0.000000E+00  3.000000E+01
 2.000000E+01  0.000000E+00  3.000000E+01
 3.000000E+01  0.000000E+00  3.000000E+01
 4.000000E+01  0.000000E+00  3.000000E+01
 5.000000E+01  0.000000E+00  3.000000E+01
 6.000000E+01  0.000000E+00  3.000000E+01
 7.000000E+01  0.000000E+00  3.000000E+01
 8.000000E+01  0.000000E+00  3.000000E+01
 9.000000E+01  0.000000E+00  3.000000E+01
 1.000000E+02  0.000000E+00  3.000000E+01
 0.000000E+00  1.000000E+00  3.000000E+01
 1.000000E+01  1.000000E+00  3.000000E+01
 2.000000E+01  1.000000E+00  3.000000E+01
 3.000000E+01  1.000000E+00  3.000000E+01
 4.000000E+01  1.000000E+00  3.000000E+01
 5.000000E+01  1.000000E+00  3.000000E+01
 6.000000E+01  1.000000E+00  3.000000E+01
 7.000000E+01  1.000000E+00  3.000000E+01
 8.000000E+01  1.000000E+00  3.000000E+01
 9.000000E+01  1.000000E+00  3.000000E+01
 1.000000E+02  1.000000E+00  3.000000E+01
 0.000000E+00  0.000000E+00  3.500000E+01
 1.000000E+01  0.000000E+00  3.500000E+01
 2.000000E+01  0.000000E+00  3.500000E+01
 3.000000E+01  0.000000E+00  3.500000E+01
 4.000000E+01  0.000000E+00  3.500000E+01
 5.000000E+01  0.000000E+00  3.500000E+01
 6.000000E+01  0.000000E+00  3.500000E+01
 7.000000E+01  0.000000E+00  3.500000E+01
 8.000000E+01  0.000000E+00  3.500000E+01
 9.000000E+01  0.000000E+00  3.500000E+01
 1.000000E+02  0.000000E+00  3.500000E+01
 0.000000E+00  1.000000E+00  3.500000E+01
 1.000000E+01  1.000000E+00  3.500000E+01
 2.000000E+01  1.000000E+00  3.500000E+01
 3.000000E+01  1.000000E+00  3.500000E+01
 4.000000E+01  1.000000E+00  3.500000E+01
 5.000000E+01  1.000000E+00  3.500000E+01
 6.000000E+01  1.000000E+00  3.500000E+01
 7.000000E+01  1.000000E+00  3.500000E+01
 8.000000E+01  1.000000E+00  3.500000E+01
 9.000000E+01  1.000000E+00  3.500000E+01
 1.000000E+02  1.000000E+00  3.500000E+01
 0.000000E+00  0.000000E+00  4.000000E+01
 1.000000E+01  0.000000E+00  4.000000E+01
 2.000000E+01  0.000000E+00  4.000000E+01
 3.000000E+01  0.000000E+00  4.000000E+01
 4.000000E+01  0.000000E+00  4.000000E+01
 5.000000E+01  0.000000E+00  4.000000E+01
 6.000000E+01  0.000000E+00  4.000000E+01
 7.000000E+01  0.000000E+00  4.000000E+01
 8.000000E+01  0.000000E+00  4.000000E+01
 9.000000E+01  0.000000E+00  4.000000E+01
 1.000000E+02  0.000000E+00  4.000000E+01
 0.000000E+00  1.000000E+00  4.000000E+01
 1.000000E+01  1.000000E+00  4.000000E+01
 2.000000E+01  1.000000E+00  4.000000E+01
 3.000000E+01  1.000000E+00  4.000000E+01
 4.000000E+01  1.000000E+00  4.000000E+01
 5.000000E+01  1.000000E+00  4.000000E+01
 6.000000E+01  1.000000E+00  4.000000E+01
 7.000000E+01  1.000000E+00  4.000000E+01
 8.000000E+01  1.000000E+00  4.000000E+01
 9.000000E+01  1.000000E+00  4.000000E+01
 1.000000E+02  1.000000E+00  4.000000E+01
 0.000000E+00  0.000000E+00  4.500000E+01
 1.000000E+01  0.000000E+00  4.500000E+01
 2.000000E+01  0.000000E+00  4.500000E+01
 3.000000E+01  0.000000E+00  4.500000E+01
 4.000000E+01  0.000000E+00  4.500000E+01
 5.000000E+01  0.000000E+00  4.500000E+01
 6.000000E+01  0.000000E+00  4.500000E+01
 7.000000E+01  0.000000E+00  4.500000E+01
 8.000000E+01  0.000000E+00  4.500000E+01
 9.000000E+01  0.000000E+00  4.500000E+01
 1.000000E+02  0.000000E+00  4.500000E+01
 0.000000E+00  1.000000E+00  4.500000E+01
 1.000000E+01  1.000000E+00  4.500000E+01
 2.000000E+01  1.000000E+00  4.500000E+01
 3.000000E+01  1.000000E+00  4.500000E+01
 4.000000E+01  1.000000E+00  4.500000E+01
 5.000000E+01  1.000000E+00  4.500000E+01
 6.000000E+01  1.000000E+00  4.500000E+01
 7.000000E+01  1.000000E+00  4.500000E+01
 8.000000E+01  1.000000E+00  4.500000E+01
 9.000000E+01  1.000000E+00  4.500000E+01
 1.000000E+02  1.000000E+00  4.500000E+01
 0.000000E+00  0.000000E+00  5.000000E+01
 1.000000E+01  0.000000E+00  5.000000E+01
 2.000000E+01  0.000000E+00  5.000000E+01
 3.000000E+01  0.000000E+00  5.000000E+01
 4.000000E+01  0.000000E+00  5.000000E+01
 5.000000E+01  0.000000E+00  5.000000E+01
 6.000000E+01  0.000000E+00  5.000000E+01
 7.000000E+01  0.000000E+00  5.000000E+01
 8.000000E+01  0.000000E+00  5.000000E+01
 9.000000E+01  0.000000E+00  5.000000E+01
 1.000000E+02  0.000000E+00  5.000000E+01
 0.000000E+00  1.000000E+00  5.000000E+01
 1.000000E+01  1.000000E+00  5.000000E+01
 2.000000E+01  1.000000E+00  5.000000E+01
 3.000000E+01  1.000000E+00  5.000000E+01
[...]
CELL_DATA      200
SCALARS Porosity             float 1
LOOKUP_TABLE default
 4.377030E-01  4.377090E-01  4.377099E-01  4.377100E-01  4.377100E-01  4.377099E-01  4.377099E-01  4.377099E-01  4.377099E-01  4.377099E-01
 4.376466E-01  4.376998E-01  4.377087E-01  4.377098E-01  4.377099E-01  4.377099E-01  4.377099E-01  4.377099E-01  4.377099E-01  4.377099E-01
 4.374089E-01  4.376542E-01  4.377020E-01  4.377091E-01  4.377099E-01  4.377099E-01  4.377099E-01  4.377099E-01  4.377099E-01  4.377098E-01
 4.367694E-01  4.375005E-01  4.376765E-01  4.377059E-01  4.377095E-01  4.377099E-01  4.377099E-01  4.377099E-01  4.377099E-01  4.377098E-01
 4.357444E-01  4.371305E-01  4.376037E-01  4.376958E-01  4.377085E-01  4.377098E-01  4.377099E-01  4.377099E-01  4.377099E-01  4.377098E-01
 4.358057E-01  4.365303E-01  4.374515E-01  4.376723E-01  4.377058E-01  4.377096E-01  4.377099E-01  4.377099E-01  4.377099E-01  4.377098E-01
 4.399628E-01  4.361748E-01  4.372408E-01  4.376350E-01  4.377013E-01  4.377091E-01  4.377098E-01  4.377099E-01  4.377099E-01  4.377098E-01
 4.399642E-01  4.360693E-01  4.371337E-01  4.376098E-01  4.376977E-01  4.377088E-01  4.377098E-01  4.377099E-01  4.377099E-01  4.377098E-01
 4.399651E-01  4.360258E-01  4.370717E-01  4.375927E-01  4.376951E-01  4.377085E-01  4.377098E-01  4.377099E-01  4.377099E-01  4.377098E-01
 4.399653E-01  4.360083E-01  4.370428E-01  4.375839E-01  4.376937E-01  4.377083E-01  4.377098E-01  4.377099E-01  4.377099E-01  4.377098E-01
 4.399648E-01  4.360082E-01  4.370428E-01  4.375840E-01  4.376937E-01  4.377083E-01  4.377098E-01  4.377099E-01  4.377099E-01  4.377098E-01
 4.399637E-01  4.360254E-01  4.370718E-01  4.375928E-01  4.376951E-01  4.377085E-01  4.377098E-01  4.377099E-01  4.377099E-01  4.377098E-01
 4.399620E-01  4.360688E-01  4.371338E-01  4.376099E-01  4.376978E-01  4.377088E-01  4.377098E-01  4.377099E-01  4.377099E-01  4.377098E-01
 4.399600E-01  4.361743E-01  4.372410E-01  4.376351E-01  4.377013E-01  4.377092E-01  4.377098E-01  4.377099E-01  4.377099E-01  4.377098E-01
 4.358042E-01  4.365306E-01  4.374518E-01  4.376725E-01  4.377059E-01  4.377096E-01  4.377099E-01  4.377099E-01  4.377099E-01  4.377098E-01
 4.357446E-01  4.371311E-01  4.376041E-01  4.376960E-01  4.377085E-01  4.377098E-01  4.377099E-01  4.377099E-01  4.377099E-01  4.377098E-01
 4.367701E-01  4.375011E-01  4.376768E-01  4.377060E-01  4.377096E-01  4.377099E-01  4.377099E-01  4.377099E-01  4.377099E-01  4.377098E-01
 4.374095E-01  4.376546E-01  4.377023E-01  4.377092E-01  4.377099E-01  4.377099E-01  4.377099E-01  4.377099E-01  4.377099E-01  4.377098E-01
 4.376470E-01  4.377001E-01  4.377088E-01  4.377099E-01  4.377099E-01  4.377099E-01  4.377099E-01  4.377099E-01  4.377099E-01  4.377098E-01
 4.377031E-01  4.377090E-01  4.377099E-01  4.377100E-01  4.377099E-01  4.377099E-01  4.377099E-01  4.377099E-01  4.377099E-01  4.377099E-01


SCALARS Permeability         float 1
LOOKUP_TABLE default
 1.000000E-12  1.000000E-12  1.000000E-12  1.000000E-12  1.000000E-12  1.000000E-12  1.000000E-12  1.000000E-12  1.000000E-12  1.000000E-12
 1.000000E-12  1.000000E-12  1.000000E-12  1.000000E-12  1.000000E-12  1.000000E-12  1.000000E-12  1.000000E-12  1.000000E-12  1.000000E-12
 1.000000E-12  1.000000E-12  1.000000E-12  1.000000E-12  1.000000E-12  1.000000E-12  1.000000E-12  1.000000E-12  1.000000E-12  1.000000E-12
 1.000000E-12  1.000000E-12  1.000000E-12  1.000000E-12  1.000000E-12  1.000000E-12  1.000000E-12  1.000000E-12  1.000000E-12  1.000000E-12
 1.000000E-12  1.000000E-12  1.000000E-12  1.000000E-12  1.000000E-12  1.000000E-12  1.000000E-12  1.000000E-12  1.000000E-12  1.000000E-12
 1.000000E-12  1.000000E-12  1.000000E-12  1.000000E-12  1.000000E-12  1.000000E-12  1.000000E-12  1.000000E-12  1.000000E-12  1.000000E-12
 1.000000E-12  1.000000E-12  1.000000E-12  1.000000E-12  1.000000E-12  1.000000E-12  1.000000E-12  1.000000E-12  1.000000E-12  1.000000E-12
 1.000000E-12  1.000000E-12  1.000000E-12  1.000000E-12  1.000000E-12  1.000000E-12  1.000000E-12  1.000000E-12  1.000000E-12  1.000000E-12
 1.000000E-12  1.000000E-12  1.000000E-12  1.000000E-12  1.000000E-12  1.000000E-12  1.000000E-12  1.000000E-12  1.000000E-12  1.000000E-12
 1.000000E-12  1.000000E-12  1.000000E-12  1.000000E-12  1.000000E-12  1.000000E-12  1.000000E-12  1.000000E-12  1.000000E-12  1.000000E-12
 1.000000E-12  1.000000E-12  1.000000E-12  1.000000E-12  1.000000E-12  1.000000E-12  1.000000E-12  1.000000E-12  1.000000E-12  1.000000E-12
 1.000000E-12  1.000000E-12  1.000000E-12  1.000000E-12  1.000000E-12  1.000000E-12  1.000000E-12  1.000000E-12  1.000000E-12  1.000000E-12
 1.000000E-12  1.000000E-12  1.000000E-12  1.000000E-12  1.000000E-12  1.000000E-12  1.000000E-12  1.000000E-12  1.000000E-12  1.000000E-12
 1.000000E-12  1.000000E-12  1.000000E-12  1.000000E-12  1.000000E-12  1.000000E-12  1.000000E-12  1.000000E-12  1.000000E-12  1.000000E-12
 1.000000E-12  1.000000E-12  1.000000E-12  1.000000E-12  1.000000E-12  1.000000E-12  1.000000E-12  1.000000E-12  1.000000E-12  1.000000E-12
 1.000000E-12  1.000000E-12  1.000000E-12  1.000000E-12  1.000000E-12  1.000000E-12  1.000000E-12  1.000000E-12  1.000000E-12  1.000000E-12
 1.000000E-12  1.000000E-12  1.000000E-12  1.000000E-12  1.000000E-12  1.000000E-12  1.000000E-12  1.000000E-12  1.000000E-12  1.000000E-12
 1.000000E-12  1.000000E-12  1.000000E-12  1.000000E-12  1.000000E-12  1.000000E-12  1.000000E-12  1.000000E-12  1.000000E-12  1.000000E-12
 1.000000E-12  1.000000E-12  1.000000E-12  1.000000E-12  1.000000E-12  1.000000E-12  1.000000E-12  1.000000E-12  1.000000E-12  1.000000E-12
 1.000000E-12  1.000000E-12  1.000000E-12  1.000000E-12  1.000000E-12  1.000000E-12  1.000000E-12  1.000000E-12  1.000000E-12  1.000000E-12


SCALARS Liquid_Pressure      float 1
LOOKUP_TABLE default
 7.947423E+06  7.907752E+06  7.848771E+06  7.784912E+06  7.723421E+06  7.667049E+06  7.616365E+06  7.571031E+06  7.530427E+06  7.493912E+06
 7.922097E+06  7.875640E+06  7.810976E+06  7.743644E+06  7.680263E+06  7.622911E+06  7.571725E+06  7.526133E+06  7.485392E+06  7.448793E+06
 7.919998E+06  7.857341E+06  7.780450E+06  7.706058E+06  7.638954E+06  7.579701E+06  7.527549E+06  7.481463E+06  7.440459E+06  7.403704E+06
 7.949231E+06  7.854230E+06  7.756864E+06  7.671706E+06  7.599196E+06  7.537249E+06  7.483749E+06  7.436977E+06  7.395608E+06  7.358638E+06
 8.025974E+06  7.867742E+06  7.739356E+06  7.639825E+06  7.560535E+06  7.495313E+06  7.440198E+06  7.392610E+06  7.350812E+06  7.313587E+06
 8.181873E+06  7.897685E+06  7.726035E+06  7.609275E+06  7.522374E+06  7.453587E+06  7.396742E+06  7.348289E+06  7.306035E+06  7.268543E+06
 8.480017E+06  7.937502E+06  7.713421E+06  7.578538E+06  7.484012E+06  7.411735E+06  7.353216E+06  7.303931E+06  7.261243E+06  7.223495E+06
 8.628277E+06  7.961676E+06  7.696471E+06  7.545912E+06  7.444726E+06  7.369419E+06  7.309458E+06  7.259460E+06  7.216400E+06  7.178434E+06
 8.688582E+06  7.963276E+06  7.671669E+06  7.509942E+06  7.403878E+06  7.326345E+06  7.265326E+06  7.214808E+06  7.171476E+06  7.133352E+06
 8.690235E+06  7.941343E+06  7.637093E+06  7.469630E+06  7.361003E+06  7.282294E+06  7.220718E+06  7.169925E+06  7.126451E+06  7.088243E+06
 8.645025E+06  7.896171E+06  7.591935E+06  7.424480E+06  7.315858E+06  7.237151E+06  7.175577E+06  7.124785E+06  7.081312E+06  7.043103E+06
 8.552956E+06  7.827763E+06  7.536198E+06  7.374493E+06  7.268443E+06  7.190918E+06  7.129905E+06  7.079389E+06  7.036059E+06  6.997934E+06
 8.402257E+06  7.735829E+06  7.470689E+06  7.320165E+06  7.219001E+06  7.143708E+06  7.083756E+06  7.033763E+06  6.990704E+06  6.952737E+06
 8.163655E+06  7.621337E+06  7.397334E+06  7.262496E+06  7.167998E+06  7.095740E+06  7.037234E+06  6.987955E+06  6.945269E+06  6.907519E+06
 7.775270E+06  7.491222E+06  7.319651E+06  7.202941E+06  7.116073E+06  7.047310E+06  6.990480E+06  6.942035E+06  6.899784E+06  6.862289E+06
 7.529130E+06  7.370995E+06  7.242682E+06  7.143203E+06  7.063949E+06  6.998754E+06  6.943656E+06  6.896079E+06  6.854283E+06  6.817055E+06
 7.362139E+06  7.267206E+06  7.169905E+06  7.084798E+06  7.012328E+06  6.950410E+06  6.896930E+06  6.850169E+06  6.808803E+06  6.771828E+06
 7.242649E+06  7.180042E+06  7.103209E+06  7.028868E+06  6.961805E+06  6.902583E+06  6.850454E+06  6.804381E+06  6.763379E+06  6.726617E+06
 7.154480E+06  7.108064E+06  7.043453E+06  6.976172E+06  6.912834E+06  6.855516E+06  6.804354E+06  6.758777E+06  6.718038E+06  6.681430E+06
 7.089526E+06  7.049893E+06  6.990965E+06  6.927159E+06  6.865713E+06  6.809379E+06  6.758720E+06  6.713403E+06  6.672801E+06  6.636274E+06


SCALARS Temperature          float 1
LOOKUP_TABLE default
 1.500811E+02  1.500882E+02  1.500975E+02  1.501071E+02  1.501158E+02  1.501219E+02  1.501233E+02  1.501178E+02  1.501052E+02  1.500876E+02
 1.500849E+02  1.500935E+02  1.501041E+02  1.501146E+02  1.501242E+02  1.501320E+02  1.501360E+02  1.501331E+02  1.501212E+02  1.501014E+02
 1.500855E+02  1.500967E+02  1.501095E+02  1.501214E+02  1.501319E+02  1.501405E+02  1.501461E+02  1.501454E+02  1.501350E+02  1.501146E+02
 1.500820E+02  1.500980E+02  1.501141E+02  1.501279E+02  1.501394E+02  1.501488E+02  1.501555E+02  1.501565E+02  1.501476E+02  1.501272E+02
 1.500722E+02  1.500973E+02  1.501182E+02  1.501345E+02  1.501473E+02  1.501574E+02  1.501648E+02  1.501671E+02  1.501597E+02  1.501396E+02
 1.500512E+02  1.500950E+02  1.501226E+02  1.501417E+02  1.501557E+02  1.501665E+02  1.501746E+02  1.501778E+02  1.501715E+02  1.501517E+02
 1.500083E+02  1.500930E+02  1.501285E+02  1.501502E+02  1.501652E+02  1.501765E+02  1.501849E+02  1.501888E+02  1.501833E+02  1.501637E+02
 1.500026E+02  1.501000E+02  1.501383E+02  1.501605E+02  1.501757E+02  1.501870E+02  1.501954E+02  1.501996E+02  1.501946E+02  1.501750E+02
 1.500009E+02  1.501049E+02  1.501456E+02  1.501687E+02  1.501841E+02  1.501954E+02  1.502039E+02  1.502083E+02  1.502037E+02  1.501839E+02
 1.500009E+02  1.501084E+02  1.501509E+02  1.501747E+02  1.501905E+02  1.502020E+02  1.502106E+02  1.502151E+02  1.502105E+02  1.501905E+02
 1.500009E+02  1.501084E+02  1.501509E+02  1.501747E+02  1.501905E+02  1.502020E+02  1.502106E+02  1.502152E+02  1.502106E+02  1.501907E+02
 1.500022E+02  1.501082E+02  1.501504E+02  1.501745E+02  1.501905E+02  1.502022E+02  1.502110E+02  1.502154E+02  1.502105E+02  1.501901E+02
 1.500056E+02  1.501069E+02  1.501482E+02  1.501725E+02  1.501889E+02  1.502008E+02  1.502097E+02  1.502139E+02  1.502084E+02  1.501872E+02
 1.500134E+02  1.501046E+02  1.501445E+02  1.501689E+02  1.501857E+02  1.501979E+02  1.502068E+02  1.502107E+02  1.502043E+02  1.501820E+02
 1.500694E+02  1.501174E+02  1.501483E+02  1.501697E+02  1.501852E+02  1.501969E+02  1.502054E+02  1.502084E+02  1.502004E+02  1.501766E+02
 1.501037E+02  1.501318E+02  1.501552E+02  1.501732E+02  1.501871E+02  1.501979E+02  1.502056E+02  1.502071E+02  1.501969E+02  1.501710E+02
 1.501267E+02  1.501451E+02  1.501630E+02  1.501781E+02  1.501904E+02  1.502003E+02  1.502069E+02  1.502063E+02  1.501930E+02  1.501644E+02
 1.501434E+02  1.501566E+02  1.501707E+02  1.501835E+02  1.501945E+02  1.502033E+02  1.502083E+02  1.502047E+02  1.501874E+02  1.501559E+02
 1.501560E+02  1.501661E+02  1.501776E+02  1.501887E+02  1.501986E+02  1.502062E+02  1.502083E+02  1.502000E+02  1.501778E+02  1.501439E+02
 1.501654E+02  1.501735E+02  1.501833E+02  1.501931E+02  1.502013E+02  1.502056E+02  1.502019E+02  1.501864E+02  1.501591E+02  1.501249E+02


SCALARS pH                   float 1
LOOKUP_TABLE default
 6.145612E+00  6.145639E+00  6.145669E+00  6.145701E+00  6.145734E+00  6.145765E+00  6.145790E+00  6.145802E+00  6.145790E+00  6.145718E+00
 6.145589E+00  6.145618E+00  6.145647E+00  6.145678E+00  6.145711E+00  6.145744E+00  6.145774E+00  6.145794E+00  6.145796E+00  6.145743E+00
 6.145550E+00  6.145606E+00  6.145637E+00  6.145669E+00  6.145702E+00  6.145735E+00  6.145767E+00  6.145792E+00  6.145799E+00  6.145754E+00
 6.145184E+00  6.145581E+00  6.145631E+00  6.145664E+00  6.145697E+00  6.145731E+00  6.145764E+00  6.145791E+00  6.145803E+00  6.145762E+00
 6.141044E+00  6.145411E+00  6.145620E+00  6.145662E+00  6.145696E+00  6.145731E+00  6.145765E+00  6.145794E+00  6.145808E+00  6.145769E+00
 6.108439E+00  6.143912E+00  6.145571E+00  6.145662E+00  6.145699E+00  6.145734E+00  6.145769E+00  6.145799E+00  6.145816E+00  6.145777E+00
 5.949595E+00  6.135253E+00  6.145304E+00  6.145662E+00  6.145707E+00  6.145742E+00  6.145777E+00  6.145809E+00  6.145827E+00  6.145787E+00
 5.949575E+00  6.133042E+00  6.145188E+00  6.145672E+00  6.145720E+00  6.145755E+00  6.145790E+00  6.145822E+00  6.145841E+00  6.145799E+00
 5.949572E+00  6.132000E+00  6.145120E+00  6.145682E+00  6.145732E+00  6.145767E+00  6.145801E+00  6.145833E+00  6.145852E+00  6.145809E+00
 5.949573E+00  6.131580E+00  6.145089E+00  6.145689E+00  6.145740E+00  6.145775E+00  6.145809E+00  6.145841E+00  6.145861E+00  6.145816E+00
 5.949570E+00  6.131575E+00  6.145085E+00  6.145686E+00  6.145739E+00  6.145774E+00  6.145808E+00  6.145840E+00  6.145860E+00  6.145815E+00
 5.949570E+00  6.131992E+00  6.145115E+00  6.145680E+00  6.145733E+00  6.145769E+00  6.145804E+00  6.145836E+00  6.145855E+00  6.145810E+00
 5.949576E+00  6.133032E+00  6.145183E+00  6.145673E+00  6.145724E+00  6.145761E+00  6.145797E+00  6.145829E+00  6.145847E+00  6.145801E+00
 5.949602E+00  6.135244E+00  6.145301E+00  6.145666E+00  6.145715E+00  6.145753E+00  6.145790E+00  6.145821E+00  6.145838E+00  6.145790E+00
 6.108451E+00  6.143914E+00  6.145578E+00  6.145674E+00  6.145715E+00  6.145753E+00  6.145789E+00  6.145819E+00  6.145833E+00  6.145783E+00
 6.141057E+00  6.145425E+00  6.145639E+00  6.145686E+00  6.145723E+00  6.145759E+00  6.145794E+00  6.145822E+00  6.145832E+00  6.145778E+00
 6.145207E+00  6.145609E+00  6.145663E+00  6.145700E+00  6.145735E+00  6.145771E+00  6.145804E+00  6.145828E+00  6.145833E+00  6.145773E+00
 6.145586E+00  6.145648E+00  6.145683E+00  6.145717E+00  6.145752E+00  6.145786E+00  6.145817E+00  6.145836E+00  6.145832E+00  6.145765E+00
 6.145639E+00  6.145672E+00  6.145704E+00  6.145738E+00  6.145772E+00  6.145804E+00  6.145830E+00  6.145841E+00  6.145827E+00  6.145748E+00
 6.145671E+00  6.145701E+00  6.145733E+00  6.145766E+00  6.145798E+00  6.145826E+00  6.145842E+00  6.145839E+00  6.145806E+00  6.145708E+00


SCALARS Total_H+             float 1
LOOKUP_TABLE default
-3.047619E-03 -3.046438E-03 -3.045011E-03 -3.043380E-03 -3.041592E-03 -3.039702E-03 -3.037796E-03 -3.035976E-03 -3.034352E-03 -3.033176E-03
-3.048839E-03 -3.047749E-03 -3.046411E-03 -3.044842E-03 -3.043073E-03 -3.041144E-03 -3.039137E-03 -3.037181E-03 -3.035409E-03 -3.034068E-03
-3.049557E-03 -3.048424E-03 -3.047107E-03 -3.045586E-03 -3.043856E-03 -3.041935E-03 -3.039890E-03 -3.037853E-03 -3.035988E-03 -3.034577E-03
-3.048808E-03 -3.048952E-03 -3.047560E-03 -3.046048E-03 -3.044349E-03 -3.042448E-03 -3.040391E-03 -3.038303E-03 -3.036367E-03 -3.034915E-03
-3.026963E-03 -3.048848E-03 -3.047892E-03 -3.046335E-03 -3.044649E-03 -3.042768E-03 -3.040711E-03 -3.038591E-03 -3.036604E-03 -3.035126E-03
-2.845899E-03 -3.041357E-03 -3.047973E-03 -3.046477E-03 -3.044784E-03 -3.042920E-03 -3.040870E-03 -3.038732E-03 -3.036709E-03 -3.035222E-03
-2.094058E-03 -2.992589E-03 -3.046680E-03 -3.046438E-03 -3.044754E-03 -3.042909E-03 -3.040873E-03 -3.038730E-03 -3.036685E-03 -3.035205E-03
-2.093965E-03 -2.979830E-03 -3.045770E-03 -3.046203E-03 -3.044563E-03 -3.042754E-03 -3.040743E-03 -3.038607E-03 -3.036555E-03 -3.035091E-03
-2.093893E-03 -2.973721E-03 -3.045139E-03 -3.045985E-03 -3.044373E-03 -3.042589E-03 -3.040596E-03 -3.038465E-03 -3.036410E-03 -3.034965E-03
-2.093874E-03 -2.971214E-03 -3.044789E-03 -3.045815E-03 -3.044211E-03 -3.042436E-03 -3.040451E-03 -3.038324E-03 -3.036271E-03 -3.034846E-03
-2.093917E-03 -2.971249E-03 -3.044814E-03 -3.045832E-03 -3.044222E-03 -3.042443E-03 -3.040456E-03 -3.038326E-03 -3.036271E-03 -3.034846E-03
-2.094009E-03 -2.973728E-03 -3.045060E-03 -3.045853E-03 -3.044209E-03 -3.042405E-03 -3.040401E-03 -3.038267E-03 -3.036221E-03 -3.034812E-03
-2.094148E-03 -2.979789E-03 -3.045568E-03 -3.045905E-03 -3.044208E-03 -3.042366E-03 -3.040337E-03 -3.038198E-03 -3.036167E-03 -3.034780E-03
-2.094292E-03 -2.992449E-03 -3.046311E-03 -3.045943E-03 -3.044185E-03 -3.042297E-03 -3.040240E-03 -3.038098E-03 -3.036092E-03 -3.034733E-03
-2.845738E-03 -3.040852E-03 -3.047294E-03 -3.045690E-03 -3.043932E-03 -3.042030E-03 -3.039963E-03 -3.037838E-03 -3.035882E-03 -3.034574E-03
-3.026260E-03 -3.047928E-03 -3.046842E-03 -3.045202E-03 -3.043465E-03 -3.041556E-03 -3.039492E-03 -3.037404E-03 -3.035525E-03 -3.034300E-03
-3.047609E-03 -3.047604E-03 -3.046115E-03 -3.044541E-03 -3.042805E-03 -3.040888E-03 -3.038838E-03 -3.036814E-03 -3.035047E-03 -3.033935E-03
-3.047892E-03 -3.046648E-03 -3.045258E-03 -3.043695E-03 -3.041942E-03 -3.040017E-03 -3.038004E-03 -3.036083E-03 -3.034472E-03 -3.033503E-03
-3.046726E-03 -3.045553E-03 -3.044167E-03 -3.042572E-03 -3.040795E-03 -3.038883E-03 -3.036956E-03 -3.035208E-03 -3.033808E-03 -3.033013E-03
-3.045094E-03 -3.043863E-03 -3.042414E-03 -3.040780E-03 -3.039014E-03 -3.037204E-03 -3.035495E-03 -3.034042E-03 -3.032934E-03 -3.032359E-03


SCALARS Total_SiO2(aq)       float 1
LOOKUP_TABLE default
 1.040231E-02  1.040012E-02  1.040049E-02  1.040126E-02  1.040200E-02  1.040255E-02  1.040269E-02  1.040224E-02  1.040117E-02  1.039971E-02
 1.042892E-02  1.040485E-02  1.040161E-02  1.040196E-02  1.040273E-02  1.040341E-02  1.040377E-02  1.040355E-02  1.040255E-02  1.040091E-02
 1.053965E-02  1.042639E-02  1.040517E-02  1.040290E-02  1.040342E-02  1.040414E-02  1.040464E-02  1.040460E-02  1.040373E-02  1.040205E-02
 1.084382E-02  1.049802E-02  1.041748E-02  1.040495E-02  1.040421E-02  1.040486E-02  1.040544E-02  1.040555E-02  1.040481E-02  1.040314E-02
 1.143234E-02  1.067291E-02  1.045166E-02  1.041020E-02  1.040538E-02  1.040564E-02  1.040624E-02  1.040646E-02  1.040585E-02  1.040421E-02
 1.225837E-02  1.099165E-02  1.052353E-02  1.042172E-02  1.040734E-02  1.040653E-02  1.040708E-02  1.040737E-02  1.040686E-02  1.040526E-02
 1.309749E-02  1.140676E-02  1.062884E-02  1.043989E-02  1.041027E-02  1.040758E-02  1.040798E-02  1.040831E-02  1.040787E-02  1.040629E-02
 1.309650E-02  1.151788E-02  1.068282E-02  1.045253E-02  1.041282E-02  1.040864E-02  1.040889E-02  1.040924E-02  1.040884E-02  1.040727E-02
 1.309593E-02  1.156735E-02  1.071437E-02  1.046122E-02  1.041476E-02  1.040950E-02  1.040963E-02  1.040999E-02  1.040962E-02  1.040805E-02
 1.309582E-02  1.158740E-02  1.072924E-02  1.046583E-02  1.041597E-02  1.041013E-02  1.041021E-02  1.041057E-02  1.041021E-02  1.040862E-02
 1.309607E-02  1.158747E-02  1.072924E-02  1.046582E-02  1.041597E-02  1.041013E-02  1.041021E-02  1.041058E-02  1.041022E-02  1.040863E-02
 1.309672E-02  1.156777E-02  1.071475E-02  1.046168E-02  1.041529E-02  1.041007E-02  1.041023E-02  1.041060E-02  1.041021E-02  1.040858E-02
 1.309781E-02  1.151866E-02  1.068361E-02  1.045349E-02  1.041391E-02  1.040982E-02  1.041011E-02  1.041047E-02  1.041003E-02  1.040833E-02
 1.309928E-02  1.140790E-02  1.063010E-02  1.044141E-02  1.041198E-02  1.040940E-02  1.040985E-02  1.041019E-02  1.040967E-02  1.040789E-02
 1.226025E-02  1.099340E-02  1.052555E-02  1.042402E-02  1.040982E-02  1.040911E-02  1.040972E-02  1.040999E-02  1.040934E-02  1.040742E-02
 1.143477E-02  1.067555E-02  1.045463E-02  1.041341E-02  1.040875E-02  1.040909E-02  1.040973E-02  1.040989E-02  1.040905E-02  1.040693E-02
 1.084720E-02  1.050172E-02  1.042149E-02  1.040916E-02  1.040855E-02  1.040926E-02  1.040984E-02  1.040983E-02  1.040872E-02  1.040637E-02
 1.054421E-02  1.043125E-02  1.041028E-02  1.040816E-02  1.040876E-02  1.040952E-02  1.040998E-02  1.040970E-02  1.040825E-02  1.040564E-02
 1.043476E-02  1.041092E-02  1.040784E-02  1.040828E-02  1.040910E-02  1.040977E-02  1.040999E-02  1.040931E-02  1.040744E-02  1.040460E-02