# vtk DataFile Version 2.0
PFLOTRAN output
ASCII
DATASET UNSTRUCTURED_GRID
POINTS          462 float
 0.000000E+00  0.000000E+00  0.000000E+00
 2.000000E+03  0.000000E+00  0.000000E+00
 4.000000E+03  0.000000E+00  0.000000E+00
 6.000000E+03  0.000000E+00  0.000000E+00
 8.000000E+03  0.000000E+00  0.000000E+00
 1.000000E+04  0.000000E+00  0.000000E+00
 1.200000E+04  0.000000E+00  0.000000E+00
 1.400000E+04  0.000000E+00  0.000000E+00
 1.600000E+04  0.000000E+00  0.000000E+00
 1.800000E+04  0.000000E+00  0.000000E+00
 2.000000E+04  0.000000E+00  0.000000E+00
 0.000000E+00  1.000000E+00  0.000000E+00
 2.000000E+03  1.000000E+00  0.000000E+00
 4.000000E+03  1.000000E+00  0.000000E+00
 6.000000E+03  1.000000E+00  0.000000E+00
 8.000000E+03  1.000000E+00  0.000000E+00
 1.000000E+04  1.000000E+00  0.000000E+00
 1.200000E+04  1.000000E+00  0.000000E+00
 1.400000E+04  1.000000E+00  0.000000E+00
 1.600000E+04  1.000000E+00  0.000000E+00
 1.800000E+04  1.000000E+00  0.000000E+00
 2.000000E+04  1.000000E+00  0.000000E+00
 0.000000E+00  0.000000E+00  5.000000E+00
 2.000000E+03  0.000000E+00  5.000000E+00
 4.000000E+03  0.000000E+00  5.000000E+00
 6.000000E+03  0.000000E+00  5.000000E+00
 8.000000E+03  0.000000E+00  5.000000E+00
 1.000000E+04  0.000000E+00  5.000000E+00
 1.200000E+04  0.000000E+00  5.000000E+00
 1.400000E+04  0.000000E+00  5.000000E+00
 1.600000E+04  0.000000E+00  5.000000E+00
 1.800000E+04  0.000000E+00  5.000000E+00
 2.000000E+04  0.000000E+00  5.000000E+00
 0.000000E+00  1.000000E+00  5.000000E+00
 2.000000E+03  1.000000E+00  5.000000E+00
 4.000000E+03  1.000000E+00  5.000000E+00
 6.000000E+03  1.000000E+00  5.000000E+00
 8.000000E+03  1.000000E+00  5.000000E+00
 1.000000E+04  1.000000E+00  5.000000E+00
 1.200000E+04  1.000000E+00  5.000000E+00
 1.400000E+04  1.000000E+00  5.000000E+00
 1.600000E+04  1.000000E+00  5.000000E+00
 1.800000E+04  1.000000E+00  5.000000E+00
 2.000000E+04  1.000000E+00  5.000000E+00
 0.000000E+00  0.000000E+00  1.000000E+01
 2.000000E+03  0.000000E+00  1.000000E+01
 4.000000E+03  0.000000E+00  1.000000E+01
 6.000000E+03  0.000000E+00  1.000000E+01
 8.000000E+03  0.000000E+00  1.000000E+01
 1.000000E+04  0.000000E+00  1.000000E+01
 1.200000E+04  0.000000E+00  1.000000E+01
 1.400000E+04  0.000000E+00  1.000000E+01
 1.600000E+04  0.000000E+00  1.000000E+01
 1.800000E+04  0.000000E+00  1.000000E+01
 2.000000E+04  0.000000E+00  1.000000E+01
 0.000000E+00  1.000000E+00  1.000000E+01
 2.000000E+03  1.000000E+00  1.000000E+01
 4.000000E+03  1.000000E+00  1.000000E+01
 6.000000E+03  1.000000E+00  1.000000E+01
 8.000000E+03  1.000000E+00  1.000000E+01
 1.000000E+04  1.000000E+00  1.000000E+01
 1.200000E+04  1.000000E+00  1.000000E+01
 1.400000E+04  1.000000E+00  1.000000E+01
 1.600000E+04  1.000000E+00  1.000000E+01
 1.800000E+04  1.000000E+00  1.000000E+01
 2.000000E+04  1.000000E+00  1.000000E+01
 0.000000E+00  0.000000E+00  1.500000E+01
 2.000000E+03  0.000000E+00  1.500000E+01
 4.000000E+03  0.000000E+00  1.500000E+01
 6.000000E+03  0.000000E+00  1.500000E+01
 8.000000E+03  0.000000E+00  1.500000E+01
 1.000000E+04  0.000000E+00  1.500000E+01
 1.200000E+04  0.000000E+00  1.500000E+01
 1.400000E+04  0.000000E+00  1.500000E+01
 1.600000E+04  0.000000E+00  1.500000E+01
 1.800000E+04  0.000000E+00  1.500000E+01
 2.000000E+04  0.000000E+00  1.500000E+01
 0.000000E+00  1.000000E+00  1.500000E+01
 2.000000E+03  1.000000E+00  1.500000E+01
 4.000000E+03  1.000000E+00  1.500000E+01
 6.000000E+03  1.000000E+00  1.500000E+01
 8.000000E+03  1.000000E+00  1.500000E+01
 1.000000E+04  1.000000E+00  1.500000E+01
 1.200000E+04  1.000000E+00  1.500000E+01
 1.400000E+04  1.000000E+00  1.500000E+01
 1.600000E+04  1.000000E+00  1.500000E+01
 1.800000E+04  1.000000E+00  1.500000E+01
 2.000000E+04  1.000000E+00  1.500000E+01
 0.000000E+00  0.000000E+00  2.000000E+01
 2.000000E+03  0.000000E+00  2.000000E+01
 4.000000E+03  0.000000E+00  2.000000E+01
 6.000000E+03  0.000000E+00  2.000000E+01
 8.000000E+03  0.000000E+00  2.000000E+01
 1.000000E+04  0.000000E+00  2.000000E+01
 1.200000E+04  0.000000E+00  2.000000E+01
 1.400000E+04  0.000000E+00  2.000000E+01
 1.600000E+04  0.000000E+00  2.000000E+01
 1.800000E+04  0.000000E+00  2.000000E+01
 2.000000E+04  0.000000E+00  2.000000E+01
 0.000000E+00  1.000000E+00  2.000000E+01
 2.000000E+03  1.000000E+00  2.000000E+01
 4.000000E+03  1.000000E+00  2.000000E+01
 6.000000E+03  1.000000E+00  2.000000E+01
 8.000000E+03  1.000000E+00  2.000000E+01
 1.000000E+04  1.000000E+00  2.000000E+01
 1.200000E+04  1.000000E+00  2.000000E+01
 1.400000E+04  1.000000E+00  2.000000E+01
 1.600000E+04  1.000000E+00  2.000000E+01
 1.800000E+04  1.000000E+00  2.000000E+01
 2.000000E+04  1.000000E+00  2.000000E+01
 0.000000E+00  0.000000E+00  2.500000E+01
 2.000000E+03  0.000000E+00  2.500000E+01
 4.000000E+03  0.000000E+00  2.500000E+01
 6.000000E+03  0.000000E+00  2.500000E+01
 8.000000E+03  0.000000E+00  2.500000E+01
 1.000000E+04  0.000000E+00  2.500000E+01
 1.200000E+04  0.000000E+00  2.500000E+01
 1.400000E+04  0.000000E+00  2.500000E+01
 1.600000E+04  0.000000E+00  2.500000E+01
 1.800000E+04  0.000000E+00  2.500000E+01
 2.000000E+04  0.000000E+00  2.500000E+01
 0.000000E+00  1.000000E+00  2.500000E+01
 2.000000E+03  1.000000E+00  2.500000E+01
 4.000000E+03  1.000000E+00  2.500000E+01
 6.000000E+03  1.000000E+00  2.500000E+01
 8.000000E+03  1.000000E+00  2.500000E+01
 1.000000E+04  1.000000E+00  2.500000E+01
 1.200000E+04  1.000000E+00  2.500000E+01
 1.400000E+04  1.000000E+00  2.500000E+01
 1.600000E+04  1.000000E+00  2.500000E+01
 1.800000E+04  1.000000E+00  2.500000E+01
 2.000000E+04  1.000000E+00  2.500000E+01
 0.000000E+00  0.000000E+00  3.000000E+01
 2.000000E+03  0.000000E+00  3.000000E+01
 4.000000E+03  0.000000E+00  3.000000E+01
 6.000000E+03  0.000000E+00  3.000000E+01
 8.000000E+03  0.000000E+00  3.000000E+01
 1.000000E+04  0.000000E+00  3.000000E+01
 1.200000E+04  0.000000E+00  3.000000E+01
 1.400000E+04  0.000000E+00  3.000000E+01
 1.600000E+04  0.000000E+00  3.000000E+01
 1.800000E+04  0.000000E+00  3.000000E+01
 2.000000E+04  0.000000E+00  3.000000E+01
 0.000000E+00  1.000000E+00  3.000000E+01
 2.000000E+03  1.000000E+00  3.000000E+01
 4.000000E+03  1.000000E+00  3.000000E+01
 6.000000E+03  1.000000E+00  3.000000E+01
 8.000000E+03  1.000000E+00  3.000000E+01
 1.000000E+04  1.000000E+00  3.000000E+01
 1.200000E+04  1.000000E+00  3.000000E+01
 1.400000E+04  1.000000E+00  3.000000E+01
 1.600000E+04  1.000000E+00  3.000000E+01
 1.800000E+04  1.000000E+00  3.000000E+01
 2.000000E+04  1.000000E+00  3.000000E+01
 0.000000E+00  0.000000E+00  3.500000E+01
 2.000000E+03  0.000000E+00  3.500000E+01
 4.000000E+03  0.000000E+00  3.500000E+01
 6.000000E+03  0.000000E+00  3.500000E+01
 8.000000E+03  0.000000E+00  3.500000E+01
 1.000000E+04  0.000000E+00  3.500000E+01
 1.200000E+04  0.000000E+00  3.500000E+01
 1.400000E+04  0.000000E+00  3.500000E+01
 1.600000E+04  0.000000E+00  3.500000E+01
 1.800000E+04  0.000000E+00  3.500000E+01
 2.000000E+04  0.000000E+00  3.500000E+01
 0.000000E+00  1.000000E+00  3.500000E+01
 2.000000E+03  1.000000E+00  3.500000E+01
 4.000000E+03  1.000000E+00  3.500000E+01
 6.000000E+03  1.000000E+00  3.500000E+01
 8.000000E+03  1.000000E+00  3.500000E+01
 1.000000E+04  1.000000E+00  3.500000E+01
 1.200000E+04  1.000000E+00  3.500000E+01
 1.400000E+04  1.000000E+00  3.500000E+01
 1.600000E+04  1.000000E+00  3.500000E+01
 1.800000E+04  1.000000E+00  3.500000E+01
 2.000000E+04  1.000000E+00  3.500000E+01
 0.000000E+00  0.000000E+00  4.000000E+01
 2.000000E+03  0.000000E+00  4.000000E+01
 4.000000E+03  0.000000E+00  4.000000E+01
 6.000000E+03  0.000000E+00  4.000000E+01
 8.000000E+03  0.000000E+00  4.000000E+01
 1.000000E+04  0.000000E+00  4.000000E+01
 1.200000E+04  0.000000E+00  4.000000E+01
 1.400000E+04  0.000000E+00  4.000000E+01
 1.600000E+04  0.000000E+00  4.000000E+01
 1.800000E+04  0.000000E+00  4.000000E+01
 2.000000E+04  0.000000E+00  4.000000E+01
 0.000000E+00  1.000000E+00  4.000000E+01
 2.000000E+03  1.000000E+00  4.000000E+01
 4.000000E+03  1.000000E+00  4.000000E+01
 6.000000E+03  1.000000E+00  4.000000E+01
 8.000000E+03  1.000000E+00  4.000000E+01
 1.000000E+04  1.000000E+00  4.000000E+01
 1.200000E+04  1.000000E+00  4.000000E+01
 1.400000E+04  1.000000E+00  4.000000E+01
 1.600000E+04  1.000000E+00  4.000000E+01
 1.800000E+04  1.000000E+00  4.000000E+01
 2.000000E+04  1.000000E+00  4.000000E+01
 0.000000E+00  0.000000E+00  4.500000E+01
 2.000000E+03  0.000000E+00  4.500000E+01
 4.000000E+03  0.000000E+00  4.500000E+01
 6.000000E+03  0.000000E+00  4.500000E+01
 8.000000E+03  0.000000E+00  4.500000E+01
 1.000000E+04  0.000000E+00  4.500000E+01
 1.200000E+04  0.000000E+00  4.500000E+01
 1.400000E+04  0.000000E+00  4.500000E+01
 1.600000E+04  0.000000E+00  4.500000E+01
 1.800000E+04  0.000000E+00  4.500000E+01
 2.000000E+04  0.000000E+00  4.500000E+01
 0.000000E+00  1.000000E+00  4.500000E+01
 2.000000E+03  1.000000E+00  4.500000E+01
 4.000000E+03  1.000000E+00  4.500000E+01
 6.000000E+03  1.000000E+00  4.500000E+01
 8.000000E+03  1.000000E+00  4.500000E+01
 1.000000E+04  1.000000E+00  4.500000E+01
 1.200000E+04  1.000000E+00  4.500000E+01
 1.400000E+04  1.000000E+00  4.500000E+01
 1.600000E+04  1.000000E+00  4.500000E+01
 1.800000E+04  1.000000E+00  4.500000E+01
 2.000000E+04  1.000000E+00  4.500000E+01
 0.000000E+00  0.000000E+00  5.000000E+01
 2.000000E+03  0.000000E+00  5.000000E+01
 4.000000E+03  0.000000E+00  5.000000E+01
 6.000000E+03  0.000000E+00  5.000000E+01
 8.000000E+03  0.000000E+00  5.000000E+01
 1.000000E+04  0.000000E+00  5.000000E+01
 1.200000E+04  0.000000E+00  5.000000E+01
 1.400000E+04  0.000000E+00  5.000000E+01
 1.600000E+04  0.000000E+00  5.000000E+01
 1.800000E+04  0.000000E+00  5.000000E+01
 2.000000E+04  0.000000E+00  5.000000E+01
 0.000000E+00  1.000000E+00  5.000000E+01
 2.000000E+03  1.000000E+00  5.000000E+01
 4.000000E+03  1.000000E+00  5.000000E+01
 6.000000E+03  1.000000E+00  5.000000E+01
[...]
CELL_DATA      200
SCALARS Porosity             float 1
LOOKUP_TABLE default
 4.377100E-01  4.377100E-01  4.377100E-01  4.377100E-01  4.377100E-01  4.377100E-01  4.377100E-01  4.377100E-01  4.377100E-01  4.377100E-01
 4.377100E-01  4.377100E-01  4.377100E-01  4.377100E-01  4.377100E-01  4.377100E-01  4.377100E-01  4.377100E-01  4.377100E-01  4.377100E-01
 4.377100E-01  4.377100E-01  4.377100E-01  4.377100E-01  4.377100E-01  4.377100E-01  4.377100E-01  4.377100E-01  4.377100E-01  4.377100E-01
 4.377100E-01  4.377100E-01  4.377100E-01  4.377100E-01  4.377100E-01  4.377100E-01  4.377100E-01  4.377100E-01  4.377100E-01  4.377100E-01
 4.377100E-01  4.377100E-01  4.377100E-01  4.377100E-01  4.377100E-01  4.377100E-01  4.377100E-01  4.377100E-01  4.377100E-01  4.377100E-01
 4.377100E-01  4.377100E-01  4.377100E-01  4.377100E-01  4.377100E-01  4.377100E-01  4.377100E-01  4.377100E-01  4.377100E-01  4.377100E-01
 4.377100E-01  4.377100E-01  4.377100E-01  4.377100E-01  4.377100E-01  4.377100E-01  4.377100E-01  4.377100E-01  4.377100E-01  4.377100E-01
 4.377100E-01  4.377100E-01  4.377100E-01  4.377100E-01  4.377100E-01  4.377100E-01  4.377100E-01  4.377100E-01  4.377100E-01  4.377100E-01
 4.377100E-01  4.377100E-01  4.377100E-01  4.377100E-01  4.377100E-01  4.377100E-01  4.377100E-01  4.377100E-01  4.377100E-01  4.377100E-01
 4.377100E-01  4.377100E-01  4.377100E-01  4.377100E-01  4.377100E-01  4.377100E-01  4.377100E-01  4.377100E-01  4.377100E-01  4.377100E-01
 4.377100E-01  4.377100E-01  4.377100E-01  4.377100E-01  4.377100E-01  4.377100E-01  4.377100E-01  4.377100E-01  4.377100E-01  4.377100E-01
 4.377100E-01  4.377100E-01  4.377100E-01  4.377100E-01  4.377100E-01  4.377100E-01  4.377100E-01  4.377100E-01  4.377100E-01  4.377100E-01
 4.377100E-01  4.377100E-01  4.377100E-01  4.377100E-01  4.377100E-01  4.377100E-01  4.377100E-01  4.377100E-01  4.377100E-01  4.377100E-01
 4.377100E-01  4.377100E-01  4.377100E-01  4.377100E-01  4.377100E-01  4.377100E-01  4.377100E-01  4.377100E-01  4.377100E-01  4.377100E-01
 4.377100E-01  4.377100E-01  4.377100E-01  4.377100E-01  4.377100E-01  4.377100E-01  4.377100E-01  4.377100E-01  4.377100E-01  4.377100E-01
 4.377100E-01  4.377100E-01  4.377100E-01  4.377100E-01  4.377100E-01  4.377100E-01  4.377100E-01  4.377100E-01  4.377100E-01  4.377100E-01
 4.377100E-01  4.377100E-01  4.377100E-01  4.377100E-01  4.377100E-01  4.377100E-01  4.377100E-01  4.377100E-01  4.377100E-01  4.377100E-01
 4.377100E-01  4.377100E-01  4.377100E-01  4.377100E-01  4.377100E-01  4.377100E-01  4.377100E-01  4.377100E-01  4.377100E-01  4.377100E-01
 4.377100E-01  4.377100E-01  4.377100E-01  4.377100E-01  4.377100E-01  4.377100E-01  4.377100E-01  4.377100E-01  4.377100E-01  4.377100E-01
 4.377100E-01  4.377100E-01  4.377100E-01  4.377100E-01  4.377100E-01  4.377100E-01  4.377100E-01  4.377100E-01  4.377100E-01  4.377100E-01


SCALARS Permeability         float 1
LOOKUP_TABLE default
 8.829806E-13  8.829806E-13  8.829805E-13  8.829805E-13  8.829805E-13  8.829805E-13  8.829805E-13  8.829805E-13  8.829805E-13  8.829805E-13
 8.829806E-13  8.829806E-13  8.829806E-13  8.829805E-13  8.829805E-13  8.829805E-13  8.829805E-13  8.829805E-13  8.829805E-13  8.829805E-13
 8.829806E-13  8.829806E-13  8.829806E-13  8.829805E-13  8.829805E-13  8.829805E-13  8.829805E-13  8.829805E-13  8.829805E-13  8.829805E-13
 8.829806E-13  8.829806E-13  8.829806E-13  8.829806E-13  8.829806E-13  8.829805E-13  8.829805E-13  8.829805E-13  8.829805E-13  8.829805E-13
 8.829806E-13  8.829806E-13  8.829806E-13  8.829806E-13  8.829806E-13  8.829806E-13  8.829806E-13  8.829806E-13  8.829805E-13  8.829805E-13
 8.829806E-13  8.829806E-13  8.829806E-13  8.829806E-13  8.829806E-13  8.829806E-13  8.829806E-13  8.829806E-13  8.829806E-13  8.829805E-13
 8.829805E-13  8.829806E-13  8.829806E-13  8.829806E-13  8.829806E-13  8.829806E-13  8.829806E-13  8.829806E-13  8.829806E-13  8.829805E-13
 8.829805E-13  8.829806E-13  8.829806E-13  8.829806E-13  8.829806E-13  8.829806E-13  8.829806E-13  8.829806E-13  8.829806E-13  8.829806E-13
 8.829805E-13  8.829806E-13  8.829806E-13  8.829806E-13  8.829806E-13  8.829806E-13  8.829806E-13  8.829806E-13  8.829806E-13  8.829806E-13
 8.829805E-13  8.829806E-13  8.829806E-13  8.829806E-13  8.829806E-13  8.829806E-13  8.829806E-13  8.829806E-13  8.829806E-13  8.829806E-13
 8.829805E-13  8.829806E-13  8.829806E-13  8.829806E-13  8.829806E-13  8.829806E-13  8.829806E-13  8.829806E-13  8.829806E-13  8.829806E-13
 8.829805E-13  8.829806E-13  8.829806E-13  8.829806E-13  8.829806E-13  8.829806E-13  8.829806E-13  8.829806E-13  8.829806E-13  8.829806E-13
 8.829805E-13  8.829806E-13  8.829806E-13  8.829806E-13  8.829806E-13  8.829806E-13  8.829806E-13  8.829806E-13  8.829806E-13  8.829806E-13
 8.829805E-13  8.829806E-13  8.829806E-13  8.829806E-13  8.829806E-13  8.829806E-13  8.829806E-13  8.829806E-13  8.829806E-13  8.829806E-13
 8.829807E-13  8.829806E-13  8.829806E-13  8.829806E-13  8.829806E-13  8.829806E-13  8.829806E-13  8.829806E-13  8.829806E-13  8.829806E-13
 8.829807E-13  8.829806E-13  8.829806E-13  8.829806E-13  8.829806E-13  8.829806E-13  8.829806E-13  8.829806E-13  8.829806E-13  8.829806E-13
 8.829807E-13  8.829806E-13  8.829806E-13  8.829806E-13  8.829806E-13  8.829806E-13  8.829806E-13  8.829806E-13  8.829806E-13  8.829806E-13
 8.829807E-13  8.829806E-13  8.829806E-13  8.829806E-13  8.829806E-13  8.829806E-13  8.829806E-13  8.829806E-13  8.829806E-13  8.829806E-13
 8.829807E-13  8.829806E-13  8.829806E-13  8.829806E-13  8.829806E-13  8.829806E-13  8.829806E-13  8.829806E-13  8.829806E-13  8.829806E-13
 8.829807E-13  8.829806E-13  8.829806E-13  8.829806E-13  8.829806E-13  8.829806E-13  8.829806E-13  8.829806E-13  8.829806E-13  8.829806E-13


SCALARS Liquid_Pressure      float 1
LOOKUP_TABLE default
 7.983378E+06  7.668032E+06  7.574604E+06  7.546304E+06  7.538383E+06  7.535928E+06  7.533676E+06  7.528207E+06  7.515245E+06  7.491697E+06
 7.938218E+06  7.622877E+06  7.529450E+06  7.501151E+06  7.493230E+06  7.490776E+06  7.488523E+06  7.483055E+06  7.470092E+06  7.446545E+06
 7.893065E+06  7.577722E+06  7.484298E+06  7.456000E+06  7.448079E+06  7.445624E+06  7.443372E+06  7.437904E+06  7.424942E+06  7.401395E+06
 7.847918E+06  7.532569E+06  7.439147E+06  7.410849E+06  7.402929E+06  7.400474E+06  7.398222E+06  7.392754E+06  7.379792E+06  7.356246E+06
 7.802777E+06  7.487416E+06  7.393997E+06  7.365700E+06  7.357780E+06  7.355325E+06  7.353073E+06  7.347605E+06  7.334644E+06  7.311098E+06
 7.757642E+06  7.442266E+06  7.348849E+06  7.320553E+06  7.312632E+06  7.310178E+06  7.307926E+06  7.302458E+06  7.289497E+06  7.265952E+06
 7.712513E+06  7.397116E+06  7.303701E+06  7.275406E+06  7.267486E+06  7.265032E+06  7.262780E+06  7.257312E+06  7.244351E+06  7.220807E+06
 7.667378E+06  7.351968E+06  7.258555E+06  7.230261E+06  7.222341E+06  7.219887E+06  7.217635E+06  7.212167E+06  7.199207E+06  7.175663E+06
 7.622238E+06  7.306821E+06  7.213411E+06  7.185117E+06  7.177197E+06  7.174743E+06  7.172491E+06  7.167024E+06  7.154063E+06  7.130520E+06
 7.577091E+06  7.261675E+06  7.168267E+06  7.139974E+06  7.132054E+06  7.129600E+06  7.127348E+06  7.121881E+06  7.108922E+06  7.085379E+06
 7.531939E+06  7.216530E+06  7.123125E+06  7.094833E+06  7.086913E+06  7.084459E+06  7.082207E+06  7.076740E+06  7.063781E+06  7.040239E+06
 7.486780E+06  7.171387E+06  7.077984E+06  7.049692E+06  7.041773E+06  7.039319E+06  7.037067E+06  7.031601E+06  7.018641E+06  6.995100E+06
 7.441616E+06  7.126245E+06  7.032844E+06  7.004553E+06  6.996634E+06  6.994181E+06  6.991929E+06  6.986462E+06  6.973503E+06  6.949962E+06
 7.396446E+06  7.081104E+06  6.987706E+06  6.959416E+06  6.951497E+06  6.949043E+06  6.946791E+06  6.941325E+06  6.928366E+06  6.904826E+06
 7.351270E+06  7.035965E+06  6.942569E+06  6.914279E+06  6.906361E+06  6.903907E+06  6.901655E+06  6.896189E+06  6.883231E+06  6.859691E+06
 7.306100E+06  6.990826E+06  6.897433E+06  6.869144E+06  6.861226E+06  6.858772E+06  6.856520E+06  6.851054E+06  6.838096E+06  6.814557E+06
 7.260936E+06  6.945689E+06  6.852298E+06  6.824010E+06  6.816092E+06  6.813638E+06  6.811387E+06  6.805921E+06  6.792963E+06  6.769425E+06
 7.215778E+06  6.900554E+06  6.807165E+06  6.778878E+06  6.770960E+06  6.768506E+06  6.766255E+06  6.760789E+06  6.747831E+06  6.724293E+06
 7.170626E+06  6.855419E+06  6.762033E+06  6.733746E+06  6.725828E+06  6.723375E+06  6.721123E+06  6.715658E+06  6.702701E+06  6.679164E+06
 7.125480E+06  6.810286E+06  6.716902E+06  6.688616E+06  6.680699E+06  6.678245E+06  6.675994E+06  6.670528E+06  6.657571E+06  6.634035E+06


SCALARS Temperature          float 1
LOOKUP_TABLE default
 1.500281E+02  1.500094E+02  1.500039E+02  1.500022E+02  1.500018E+02  1.500016E+02  1.500015E+02  1.500012E+02  1.500004E+02  1.499990E+02
 1.500281E+02  1.500094E+02  1.500039E+02  1.500022E+02  1.500018E+02  1.500016E+02  1.500015E+02  1.500012E+02  1.500004E+02  1.499990E+02
 1.500281E+02  1.500094E+02  1.500039E+02  1.500022E+02  1.500018E+02  1.500016E+02  1.500015E+02  1.500012E+02  1.500004E+02  1.499990E+02
 1.500281E+02  1.500094E+02  1.500039E+02  1.500022E+02  1.500018E+02  1.500016E+02  1.500015E+02  1.500012E+02  1.500004E+02  1.499990E+02
 1.500281E+02  1.500094E+02  1.500039E+02  1.500022E+02  1.500018E+02  1.500016E+02  1.500015E+02  1.500012E+02  1.500004E+02  1.499990E+02
 1.500281E+02  1.500094E+02  1.500039E+02  1.500022E+02  1.500018E+02  1.500016E+02  1.500015E+02  1.500012E+02  1.500004E+02  1.499990E+02
 1.500281E+02  1.500094E+02  1.500039E+02  1.500022E+02  1.500018E+02  1.500016E+02  1.500015E+02  1.500012E+02  1.500004E+02  1.499990E+02
 1.500281E+02  1.500094E+02  1.500039E+02  1.500022E+02  1.500018E+02  1.500016E+02  1.500015E+02  1.500012E+02  1.500004E+02  1.499990E+02
 1.500281E+02  1.500094E+02  1.500039E+02  1.500022E+02  1.500018E+02  1.500016E+02  1.500015E+02  1.500012E+02  1.500004E+02  1.499990E+02
 1.500281E+02  1.500094E+02  1.500039E+02  1.500022E+02  1.500018E+02  1.500016E+02  1.500015E+02  1.500012E+02  1.500004E+02  1.499990E+02
 1.500281E+02  1.500095E+02  1.500039E+02  1.500022E+02  1.500018E+02  1.500016E+02  1.500015E+02  1.500012E+02  1.500004E+02  1.499990E+02
 1.500281E+02  1.500095E+02  1.500039E+02  1.500022E+02  1.500018E+02  1.500016E+02  1.500015E+02  1.500012E+02  1.500004E+02  1.499990E+02
 1.500281E+02  1.500095E+02  1.500039E+02  1.500022E+02  1.500018E+02  1.500016E+02  1.500015E+02  1.500012E+02  1.500004E+02  1.499990E+02
 1.500281E+02  1.500095E+02  1.500039E+02  1.500022E+02  1.500018E+02  1.500016E+02  1.500015E+02  1.500012E+02  1.500004E+02  1.499990E+02
 1.500282E+02  1.500095E+02  1.500039E+02  1.500022E+02  1.500018E+02  1.500016E+02  1.500015E+02  1.500012E+02  1.500004E+02  1.499990E+02
 1.500282E+02  1.500095E+02  1.500039E+02  1.500022E+02  1.500018E+02  1.500016E+02  1.500015E+02  1.500012E+02  1.500004E+02  1.499990E+02
 1.500282E+02  1.500095E+02  1.500039E+02  1.500022E+02  1.500018E+02  1.500016E+02  1.500015E+02  1.500012E+02  1.500004E+02  1.499990E+02
 1.500282E+02  1.500095E+02  1.500039E+02  1.500022E+02  1.500018E+02  1.500016E+02  1.500015E+02  1.500012E+02  1.500004E+02  1.499990E+02
 1.500282E+02  1.500095E+02  1.500039E+02  1.500022E+02  1.500018E+02  1.500016E+02  1.500015E+02  1.500012E+02  1.500004E+02  1.499990E+02
 1.500282E+02  1.500095E+02  1.500039E+02  1.500022E+02  1.500018E+02  1.500016E+02  1.500015E+02  1.500012E+02  1.500004E+02  1.499990E+02


SCALARS pH                   float 1
LOOKUP_TABLE default
 6.144163E+00  6.144135E+00  6.144127E+00  6.144124E+00  6.144124E+00  6.144123E+00  6.144123E+00  6.144123E+00  6.144122E+00  6.144120E+00
 6.144163E+00  6.144135E+00  6.144127E+00  6.144124E+00  6.144124E+00  6.144123E+00  6.144123E+00  6.144123E+00  6.144122E+00  6.144120E+00
 6.144163E+00  6.144135E+00  6.144127E+00  6.144124E+00  6.144124E+00  6.144123E+00  6.144123E+00  6.144123E+00  6.144122E+00  6.144120E+00
 6.144163E+00  6.144135E+00  6.144127E+00  6.144124E+00  6.144124E+00  6.144123E+00  6.144123E+00  6.144123E+00  6.144122E+00  6.144120E+00
 6.144163E+00  6.144135E+00  6.144127E+00  6.144124E+00  6.144124E+00  6.144123E+00  6.144123E+00  6.144123E+00  6.144122E+00  6.144120E+00
 6.144163E+00  6.144135E+00  6.144127E+00  6.144124E+00  6.144124E+00  6.144123E+00  6.144123E+00  6.144123E+00  6.144122E+00  6.144120E+00
 6.144162E+00  6.144135E+00  6.144127E+00  6.144124E+00  6.144124E+00  6.144123E+00  6.144123E+00  6.144123E+00  6.144122E+00  6.144120E+00
 6.144162E+00  6.144135E+00  6.144127E+00  6.144124E+00  6.144124E+00  6.144123E+00  6.144123E+00  6.144123E+00  6.144122E+00  6.144120E+00
 6.144162E+00  6.144135E+00  6.144127E+00  6.144124E+00  6.144124E+00  6.144123E+00  6.144123E+00  6.144123E+00  6.144122E+00  6.144120E+00
 6.144162E+00  6.144135E+00  6.144127E+00  6.144124E+00  6.144124E+00  6.144123E+00  6.144123E+00  6.144123E+00  6.144122E+00  6.144120E+00
 6.144162E+00  6.144135E+00  6.144127E+00  6.144124E+00  6.144124E+00  6.144123E+00  6.144123E+00  6.144123E+00  6.144122E+00  6.144120E+00
 6.144162E+00  6.144135E+00  6.144127E+00  6.144124E+00  6.144124E+00  6.144123E+00  6.144123E+00  6.144123E+00  6.144122E+00  6.144120E+00
 6.144162E+00  6.144135E+00  6.144127E+00  6.144124E+00  6.144124E+00  6.144123E+00  6.144123E+00  6.144123E+00  6.144122E+00  6.144120E+00
 6.144162E+00  6.144135E+00  6.144127E+00  6.144124E+00  6.144124E+00  6.144123E+00  6.144123E+00  6.144123E+00  6.144122E+00  6.144120E+00
 6.144163E+00  6.144135E+00  6.144127E+00  6.144124E+00  6.144124E+00  6.144124E+00  6.144123E+00  6.144123E+00  6.144122E+00  6.144120E+00
 6.144163E+00  6.144135E+00  6.144127E+00  6.144124E+00  6.144124E+00  6.144124E+00  6.144123E+00  6.144123E+00  6.144122E+00  6.144120E+00
 6.144163E+00  6.144135E+00  6.144127E+00  6.144124E+00  6.144124E+00  6.144124E+00  6.144123E+00  6.144123E+00  6.144122E+00  6.144120E+00
 6.144163E+00  6.144135E+00  6.144127E+00  6.144124E+00  6.144124E+00  6.144124E+00  6.144123E+00  6.144123E+00  6.144122E+00  6.144120E+00
 6.144163E+00  6.144135E+00  6.144127E+00  6.144124E+00  6.144124E+00  6.144124E+00  6.144123E+00  6.144123E+00  6.144122E+00  6.144120E+00
 6.144163E+00  6.144135E+00  6.144127E+00  6.144124E+00  6.144124E+00  6.144124E+00  6.144123E+00  6.144123E+00  6.144122E+00  6.144120E+00


SCALARS Total_H+             float 1
LOOKUP_TABLE default
-3.057869E-03 -3.058534E-03 -3.058731E-03 -3.058790E-03 -3.058807E-03 -3.058812E-03 -3.058817E-03 -3.058828E-03 -3.058856E-03 -3.058906E-03
-3.057869E-03 -3.058534E-03 -3.058731E-03 -3.058790E-03 -3.058807E-03 -3.058812E-03 -3.058817E-03 -3.058828E-03 -3.058856E-03 -3.058905E-03
-3.057869E-03 -3.058533E-03 -3.058731E-03 -3.058790E-03 -3.058807E-03 -3.058812E-03 -3.058817E-03 -3.058828E-03 -3.058856E-03 -3.058905E-03
-3.057869E-03 -3.058533E-03 -3.058730E-03 -3.058790E-03 -3.058807E-03 -3.058812E-03 -3.058817E-03 -3.058828E-03 -3.058855E-03 -3.058905E-03
-3.057869E-03 -3.058533E-03 -3.058730E-03 -3.058790E-03 -3.058807E-03 -3.058812E-03 -3.058816E-03 -3.058828E-03 -3.058855E-03 -3.058905E-03
-3.057868E-03 -3.058533E-03 -3.058730E-03 -3.058790E-03 -3.058806E-03 -3.058812E-03 -3.058816E-03 -3.058828E-03 -3.058855E-03 -3.058905E-03
-3.057840E-03 -3.058533E-03 -3.058730E-03 -3.058790E-03 -3.058806E-03 -3.058811E-03 -3.058816E-03 -3.058828E-03 -3.058855E-03 -3.058905E-03
-3.057839E-03 -3.058533E-03 -3.058730E-03 -3.058789E-03 -3.058806E-03 -3.058811E-03 -3.058816E-03 -3.058828E-03 -3.058855E-03 -3.058905E-03
-3.057839E-03 -3.058532E-03 -3.058730E-03 -3.058789E-03 -3.058806E-03 -3.058811E-03 -3.058816E-03 -3.058827E-03 -3.058855E-03 -3.058905E-03
-3.057839E-03 -3.058532E-03 -3.058730E-03 -3.058789E-03 -3.058806E-03 -3.058811E-03 -3.058816E-03 -3.058827E-03 -3.058855E-03 -3.058904E-03
-3.057839E-03 -3.058532E-03 -3.058729E-03 -3.058789E-03 -3.058806E-03 -3.058811E-03 -3.058816E-03 -3.058827E-03 -3.058855E-03 -3.058904E-03
-3.057838E-03 -3.058532E-03 -3.058729E-03 -3.058789E-03 -3.058806E-03 -3.058811E-03 -3.058815E-03 -3.058827E-03 -3.058854E-03 -3.058904E-03
-3.057838E-03 -3.058532E-03 -3.058729E-03 -3.058789E-03 -3.058805E-03 -3.058811E-03 -3.058815E-03 -3.058827E-03 -3.058854E-03 -3.058904E-03
-3.057838E-03 -3.058532E-03 -3.058729E-03 -3.058789E-03 -3.058805E-03 -3.058810E-03 -3.058815E-03 -3.058827E-03 -3.058854E-03 -3.058904E-03
-3.057865E-03 -3.058531E-03 -3.058729E-03 -3.058788E-03 -3.058805E-03 -3.058810E-03 -3.058815E-03 -3.058827E-03 -3.058854E-03 -3.058904E-03
-3.057865E-03 -3.058531E-03 -3.058729E-03 -3.058788E-03 -3.058805E-03 -3.058810E-03 -3.058815E-03 -3.058826E-03 -3.058854E-03 -3.058904E-03
-3.057865E-03 -3.058531E-03 -3.058729E-03 -3.058788E-03 -3.058805E-03 -3.058810E-03 -3.058815E-03 -3.058826E-03 -3.058854E-03 -3.058904E-03
-3.057865E-03 -3.058531E-03 -3.058728E-03 -3.058788E-03 -3.058805E-03 -3.058810E-03 -3.058815E-03 -3.058826E-03 -3.058854E-03 -3.058903E-03
-3.057865E-03 -3.058531E-03 -3.058728E-03 -3.058788E-03 -3.058805E-03 -3.058810E-03 -3.058815E-03 -3.058826E-03 -3.058854E-03 -3.058903E-03
-3.057865E-03 -3.058531E-03 -3.058728E-03 -3.058788E-03 -3.058804E-03 -3.058810E-03 -3.058814E-03 -3.058826E-03 -3.058853E-03 -3.058903E-03


SCALARS Total_SiO2(aq)       float 1
LOOKUP_TABLE default
 1.039440E-02  1.039282E-02  1.039236E-02  1.039222E-02  1.039218E-02  1.039217E-02  1.039216E-02  1.039214E-02  1.039207E-02  1.039195E-02
 1.039440E-02  1.039282E-02  1.039236E-02  1.039222E-02  1.039218E-02  1.039217E-02  1.039216E-02  1.039214E-02  1.039207E-02  1.039195E-02
 1.039440E-02  1.039282E-02  1.039236E-02  1.039222E-02  1.039218E-02  1.039217E-02  1.039216E-02  1.039214E-02  1.039207E-02  1.039195E-02
 1.039440E-02  1.039282E-02  1.039236E-02  1.039222E-02  1.039218E-02  1.039217E-02  1.039216E-02  1.039214E-02  1.039207E-02  1.039195E-02
 1.039440E-02  1.039282E-02  1.039236E-02  1.039222E-02  1.039218E-02  1.039217E-02  1.039216E-02  1.039214E-02  1.039207E-02  1.039195E-02
 1.039441E-02  1.039282E-02  1.039236E-02  1.039222E-02  1.039218E-02  1.039217E-02  1.039216E-02  1.039214E-02  1.039207E-02  1.039195E-02
 1.039464E-02  1.039282E-02  1.039236E-02  1.039222E-02  1.039218E-02  1.039217E-02  1.039216E-02  1.039214E-02  1.039207E-02  1.039195E-02
 1.039464E-02  1.039282E-02  1.039236E-02  1.039222E-02  1.039218E-02  1.039217E-02  1.039216E-02  1.039214E-02  1.039207E-02  1.039195E-02
 1.039464E-02  1.039282E-02  1.039236E-02  1.039222E-02  1.039218E-02  1.039217E-02  1.039216E-02  1.039214E-02  1.039207E-02  1.039195E-02
 1.039464E-02  1.039282E-02  1.039236E-02  1.039222E-02  1.039218E-02  1.039217E-02  1.039216E-02  1.039214E-02  1.039207E-02  1.039195E-02
 1.039464E-02  1.039282E-02  1.039236E-02  1.039222E-02  1.039218E-02  1.039217E-02  1.039216E-02  1.039214E-02  1.039207E-02  1.039195E-02
 1.039464E-02  1.039282E-02  1.039236E-02  1.039222E-02  1.039218E-02  1.039217E-02  1.039216E-02  1.039214E-02  1.039207E-02  1.039195E-02
 1.039464E-02  1.039282E-02  1.039236E-02  1.039222E-02  1.039218E-02  1.039217E-02  1.039216E-02  1.039214E-02  1.039207E-02  1.039195E-02
 1.039464E-02  1.039282E-02  1.039236E-02  1.039222E-02  1.039218E-02  1.039217E-02  1.039216E-02  1.039214E-02  1.039207E-02  1.039195E-02
 1.039441E-02  1.039282E-02  1.039236E-02  1.039222E-02  1.039218E-02  1.039217E-02  1.039216E-02  1.039214E-02  1.039207E-02  1.039195E-02
 1.039441E-02  1.039282E-02  1.039236E-02  1.039222E-02  1.039218E-02  1.039217E-02  1.039216E-02  1.039214E-02  1.039207E-02  1.039195E-02
 1.039441E-02  1.039282E-02  1.039236E-02  1.039222E-02  1.039218E-02  1.039217E-02  1.039216E-02  1.039214E-02  1.039207E-02  1.039195E-02
 1.039441E-02  1.039282E-02  1.039236E-02  1.039222E-02  1.039218E-02  1.039217E-02  1.039216E-02  1.039214E-02  1.039207E-02  1.039195E-02
 1.039441E-02  1.039282E-02  1.039236E-02  1.039222E-02  1.039218E-02  1.039217E-02  1.039216E-02  1.039214E-02  1.039207E-02  1.039195E-02