# vtk DataFile Version 2.0
PFLOTRAN output
ASCII
DATASET UNSTRUCTURED_GRID
POINTS          462 float
 0.000000E+00  0.000000E+00  0.000000E+00
 2.000000E+03  0.000000E+00  0.000000E+00
 4.000000E+03  0.000000E+00  0.000000E+00
 6.000000E+03  0.000000E+00  0.000000E+00
 8.000000E+03  0.000000E+00  0.000000E+00
 1.000000E+04  0.000000E+00  0.000000E+00
 1.200000E+04  0.000000E+00  0.000000E+00
 1.400000E+04  0.000000E+00  0.000000E+00
 1.600000E+04  0.000000E+00  0.000000E+00
 1.800000E+04  0.000000E+00  0.000000E+00
 2.000000E+04  0.000000E+00  0.000000E+00
 0.000000E+00  1.000000E+00  0.000000E+00
 2.000000E+03  1.000000E+00  0.000000E+00
 4.000000E+03  1.000000E+00  0.000000E+00
 6.000000E+03  1.000000E+00  0.000000E+00
 8.000000E+03  1.000000E+00  0.000000E+00
 1.000000E+04  1.000000E+00  0.000000E+00
 1.200000E+04  1.000000E+00  0.000000E+00
 1.400000E+04  1.000000E+00  0.000000E+00
 1.600000E+04  1.000000E+00  0.000000E+00
 1.800000E+04  1.000000E+00  0.000000E+00
 2.000000E+04  1.000000E+00  0.000000E+00
 0.000000E+00  0.000000E+00  5.000000E+00
 2.000000E+03  0.000000E+00  5.000000E+00
 4.000000E+03  0.000000E+00  5.000000E+00
 6.000000E+03  0.000000E+00  5.000000E+00
 8.000000E+03  0.000000E+00  5.000000E+00
 1.000000E+04  0.000000E+00  5.000000E+00
 1.200000E+04  0.000000E+00  5.000000E+00
 1.400000E+04  0.000000E+00  5.000000E+00
 1.600000E+04  0.000000E+00  5.000000E+00
 1.800000E+04  0.000000E+00  5.000000E+00
 2.000000E+04  0.000000E+00  5.000000E+00
 0.000000E+00  1.000000E+00  5.000000E+00
 2.000000E+03  1.000000E+00  5.000000E+00
 4.000000E+03  1.000000E+00  5.000000E+00
 6.000000E+03  1.000000E+00  5.000000E+00
 8.000000E+03  1.000000E+00  5.000000E+00
 1.000000E+04  1.000000E+00  5.000000E+00
 1.200000E+04  1.000000E+00  5.000000E+00
 1.400000E+04  1.000000E+00  5.000000E+00
 1.600000E+04  1.000000E+00  5.000000E+00
 1.800000E+04  1.000000E+00  5.000000E+00
 2.000000E+04  1.000000E+00  5.000000E+00
 0.000000E+00  0.000000E+00  1.000000E+01
 2.000000E+03  0.000000E+00  1.000000E+01
 4.000000E+03  0.000000E+00  1.000000E+01
 6.000000E+03  0.000000E+00  1.000000E+01
 8.000000E+03  0.000000E+00  1.000000E+01
 1.000000E+04  0.000000E+00  1.000000E+01
 1.200000E+04  0.000000E+00  1.000000E+01
 1.400000E+04  0.000000E+00  1.000000E+01
 1.600000E+04  0.000000E+00  1.000000E+01
 1.800000E+04  0.000000E+00  1.000000E+01
 2.000000E+04  0.000000E+00  1.000000E+01
 0.000000E+00  1.000000E+00  1.000000E+01
 2.000000E+03  1.000000E+00  1.000000E+01
 4.000000E+03  1.000000E+00  1.000000E+01
 6.000000E+03  1.000000E+00  1.000000E+01
 8.000000E+03  1.000000E+00  1.000000E+01
 1.000000E+04  1.000000E+00  1.000000E+01
 1.200000E+04  1.000000E+00  1.000000E+01
 1.400000E+04  1.000000E+00  1.000000E+01
 1.600000E+04  1.000000E+00  1.000000E+01
 1.800000E+04  1.000000E+00  1.000000E+01
 2.000000E+04  1.000000E+00  1.000000E+01
 0.000000E+00  0.000000E+00  1.500000E+01
 2.000000E+03  0.000000E+00  1.500000E+01
 4.000000E+03  0.000000E+00  1.500000E+01
 6.000000E+03  0.000000E+00  1.500000E+01
 8.000000E+03  0.000000E+00  1.500000E+01
 1.000000E+04  0.000000E+00  1.500000E+01
 1.200000E+04  0.000000E+00  1.500000E+01
 1.400000E+04  0.000000E+00  1.500000E+01
 1.600000E+04  0.000000E+00  1.500000E+01
 1.800000E+04  0.000000E+00  1.500000E+01
 2.000000E+04  0.000000E+00  1.500000E+01
 0.000000E+00  1.000000E+00  1.500000E+01
 2.000000E+03  1.000000E+00  1.500000E+01
 4.000000E+03  1.000000E+00  1.500000E+01
 6.000000E+03  1.000000E+00  1.500000E+01
 8.000000E+03  1.000000E+00  1.500000E+01
 1.000000E+04  1.000000E+00  1.500000E+01
 1.200000E+04  1.000000E+00  1.500000E+01
 1.400000E+04  1.000000E+00  1.500000E+01
 1.600000E+04  1.000000E+00  1.500000E+01
 1.800000E+04  1.000000E+00  1.500000E+01
 2.000000E+04  1.000000E+00  1.500000E+01
 0.000000E+00  0.000000E+00  2.000000E+01
 2.000000E+03  0.000000E+00  2.000000E+01
 4.000000E+03  0.000000E+00  2.000000E+01
 6.000000E+03  0.000000E+00  2.000000E+01
 8.000000E+03  0.000000E+00  2.000000E+01
 1.000000E+04  0.000000E+00  2.000000E+01
 1.200000E+04  0.000000E+00  2.000000E+01
 1.400000E+04  0.000000E+00  2.000000E+01
 1.600000E+04  0.000000E+00  2.000000E+01
 1.800000E+04  0.000000E+00  2.000000E+01
 2.000000E+04  0.000000E+00  2.000000E+01
 0.000000E+00  1.000000E+00  2.000000E+01
 2.000000E+03  1.000000E+00  2.000000E+01
 4.000000E+03  1.000000E+00  2.000000E+01
 6.000000E+03  1.000000E+00  2.000000E+01
 8.000000E+03  1.000000E+00  2.000000E+01
 1.000000E+04  1.000000E+00  2.000000E+01
 1.200000E+04  1.000000E+00  2.000000E+01
 1.400000E+04  1.000000E+00  2.000000E+01
 1.600000E+04  1.000000E+00  2.000000E+01
 1.800000E+04  1.000000E+00  2.000000E+01
 2.000000E+04  1.000000E+00  2.000000E+01
 0.000000E+00  0.000000E+00  2.500000E+01
 2.000000E+03  0.000000E+00  2.500000E+01
 4.000000E+03  0.000000E+00  2.500000E+01
 6.000000E+03  0.000000E+00  2.500000E+01
 8.000000E+03  0.000000E+00  2.500000E+01
 1.000000E+04  0.000000E+00  2.500000E+01
 1.200000E+04  0.000000E+00  2.500000E+01
 1.400000E+04  0.000000E+00  2.500000E+01
 1.600000E+04  0.000000E+00  2.500000E+01
 1.800000E+04  0.000000E+00  2.500000E+01
 2.000000E+04  0.000000E+00  2.500000E+01
 0.000000E+00  1.000000E+00  2.500000E+01
 2.000000E+03  1.000000E+00  2.500000E+01
 4.000000E+03  1.000000E+00  2.500000E+01
 6.000000E+03  1.000000E+00  2.500000E+01
 8.000000E+03  1.000000E+00  2.500000E+01
 1.000000E+04  1.000000E+00  2.500000E+01
 1.200000E+04  1.000000E+00  2.500000E+01
 1.400000E+04  1.000000E+00  2.500000E+01
 1.600000E+04  1.000000E+00  2.500000E+01
 1.800000E+04  1.000000E+00  2.500000E+01
 2.000000E+04  1.000000E+00  2.500000E+01
 0.000000E+00  0.000000E+00  3.000000E+01
 2.000000E+03  0.000000E+00  3.000000E+01
 4.000000E+03  0.000000E+00  3.000000E+01
 6.000000E+03  0.000000E+00  3.000000E+01
 8.000000E+03  0.000000E+00  3.000000E+01
 1.000000E+04  0.000000E+00  3.000000E+01
 1.200000E+04  0.000000E+00  3.000000E+01
 1.400000E+04  0.000000E+00  3.000000E+01
 1.600000E+04  0.000000E+00  3.000000E+01
 1.800000E+04  0.000000E+00  3.000000E+01
 2.000000E+04  0.000000E+00  3.000000E+01
 0.000000E+00  1.000000E+00  3.000000E+01
 2.000000E+03  1.000000E+00  3.000000E+01
 4.000000E+03  1.000000E+00  3.000000E+01
 6.000000E+03  1.000000E+00  3.000000E+01
 8.000000E+03  1.000000E+00  3.000000E+01
 1.000000E+04  1.000000E+00  3.000000E+01
 1.200000E+04  1.000000E+00  3.000000E+01
 1.400000E+04  1.000000E+00  3.000000E+01
 1.600000E+04  1.000000E+00  3.000000E+01
 1.800000E+04  1.000000E+00  3.000000E+01
 2.000000E+04  1.000000E+00  3.000000E+01
 0.000000E+00  0.000000E+00  3.500000E+01
 2.000000E+03  0.000000E+00  3.500000E+01
 4.000000E+03  0.000000E+00  3.500000E+01
 6.000000E+03  0.000000E+00  3.500000E+01
 8.000000E+03  0.000000E+00  3.500000E+01
 1.000000E+04  0.000000E+00  3.500000E+01
 1.200000E+04  0.000000E+00  3.500000E+01
 1.400000E+04  0.000000E+00  3.500000E+01
 1.600000E+04  0.000000E+00  3.500000E+01
 1.800000E+04  0.000000E+00  3.500000E+01
 2.000000E+04  0.000000E+00  3.500000E+01
 0.000000E+00  1.000000E+00  3.500000E+01
 2.000000E+03  1.000000E+00  3.500000E+01
 4.000000E+03  1.000000E+00  3.500000E+01
 6.000000E+03  1.000000E+00  3.500000E+01
 8.000000E+03  1.000000E+00  3.500000E+01
 1.000000E+04  1.000000E+00  3.500000E+01
 1.200000E+04  1.000000E+00  3.500000E+01
 1.400000E+04  1.000000E+00  3.500000E+01
 1.600000E+04  1.000000E+00  3.500000E+01
 1.800000E+04  1.000000E+00  3.500000E+01
 2.000000E+04  1.000000E+00  3.500000E+01
 0.000000E+00  0.000000E+00  4.000000E+01
 2.000000E+03  0.000000E+00  4.000000E+01
 4.000000E+03  0.000000E+00  4.000000E+01
 6.000000E+03  0.000000E+00  4.000000E+01
 8.000000E+03  0.000000E+00  4.000000E+01
 1.000000E+04  0.000000E+00  4.000000E+01
 1.200000E+04  0.000000E+00  4.000000E+01
 1.400000E+04  0.000000E+00  4.000000E+01
 1.600000E+04  0.000000E+00  4.000000E+01
 1.800000E+04  0.000000E+00  4.000000E+01
 2.000000E+04  0.000000E+00  4.000000E+01
 0.000000E+00  1.000000E+00  4.000000E+01
 2.000000E+03  1.000000E+00  4.000000E+01
 4.000000E+03  1.000000E+00  4.000000E+01
 6.000000E+03  1.000000E+00  4.000000E+01
 8.000000E+03  1.000000E+00  4.000000E+01
 1.000000E+04  1.000000E+00  4.000000E+01
 1.200000E+04  1.000000E+00  4.000000E+01
 1.400000E+04  1.000000E+00  4.000000E+01
 1.600000E+04  1.000000E+00  4.000000E+01
 1.800000E+04  1.000000E+00  4.000000E+01
 2.000000E+04  1.000000E+00  4.000000E+01
 0.000000E+00  0.000000E+00  4.500000E+01
 2.000000E+03  0.000000E+00  4.500000E+01
 4.000000E+03  0.000000E+00  4.500000E+01
 6.000000E+03  0.000000E+00  4.500000E+01
 8.000000E+03  0.000000E+00  4.500000E+01
 1.000000E+04  0.000000E+00  4.500000E+01
 1.200000E+04  0.000000E+00  4.500000E+01
 1.400000E+04  0.000000E+00  4.500000E+01
 1.600000E+04  0.000000E+00  4.500000E+01
 1.800000E+04  0.000000E+00  4.500000E+01
 2.000000E+04  0.000000E+00  4.500000E+01
 0.000000E+00  1.000000E+00  4.500000E+01
 2.000000E+03  1.000000E+00  4.500000E+01
 4.000000E+03  1.000000E+00  4.500000E+01
 6.000000E+03  1.000000E+00  4.500000E+01
 8.000000E+03  1.000000E+00  4.500000E+01
 1.000000E+04  1.000000E+00  4.500000E+01
 1.200000E+04  1.000000E+00  4.500000E+01
 1.400000E+04  1.000000E+00  4.500000E+01
 1.600000E+04  1.000000E+00  4.500000E+01
 1.800000E+04  1.000000E+00  4.500000E+01
 2.000000E+04  1.000000E+00  4.500000E+01
 0.000000E+00  0.000000E+00  5.000000E+01
 2.000000E+03  0.000000E+00  5.000000E+01
 4.000000E+03  0.000000E+00  5.000000E+01
 6.000000E+03  0.000000E+00  5.000000E+01
 8.000000E+03  0.000000E+00  5.000000E+01
 1.000000E+04  0.000000E+00  5.000000E+01
 1.200000E+04  0.000000E+00  5.000000E+01
 1.400000E+04  0.000000E+00  5.000000E+01
 1.600000E+04  0.000000E+00  5.000000E+01
 1.800000E+04  0.000000E+00  5.000000E+01
 2.000000E+04  0.000000E+00  5.000000E+01
 0.000000E+00  1.000000E+00  5.000000E+01
 2.000000E+03  1.000000E+00  5.000000E+01
 4.000000E+03  1.000000E+00  5.000000E+01
 6.000000E+03  1.000000E+00  5.000000E+01
[...]
CELL_DATA      200
SCALARS Porosity             float 1
LOOKUP_TABLE default
 4.377100E-01  4.377100E-01  4.377100E-01  4.377100E-01  4.377100E-01  4.377100E-01  4.377100E-01  4.377100E-01  4.377100E-01  4.377100E-01
 4.377100E-01  4.377100E-01  4.377100E-01  4.377100E-01  4.377100E-01  4.377100E-01  4.377100E-01  4.377100E-01  4.377100E-01  4.377100E-01
 4.377100E-01  4.377100E-01  4.377100E-01  4.377100E-01  4.377100E-01  4.377100E-01  4.377100E-01  4.377100E-01  4.377100E-01  4.377100E-01
 4.377100E-01  4.377100E-01  4.377100E-01  4.377100E-01  4.377100E-01  4.377100E-01  4.377100E-01  4.377100E-01  4.377100E-01  4.377100E-01
 4.377100E-01  4.377100E-01  4.377100E-01  4.377100E-01  4.377100E-01  4.377100E-01  4.377100E-01  4.377100E-01  4.377100E-01  4.377100E-01
 4.377100E-01  4.377100E-01  4.377100E-01  4.377100E-01  4.377100E-01  4.377100E-01  4.377100E-01  4.377100E-01  4.377100E-01  4.377100E-01
 4.377099E-01  4.377100E-01  4.377100E-01  4.377100E-01  4.377100E-01  4.377100E-01  4.377100E-01  4.377100E-01  4.377100E-01  4.377100E-01
 4.377099E-01  4.377100E-01  4.377100E-01  4.377100E-01  4.377100E-01  4.377100E-01  4.377100E-01  4.377100E-01  4.377100E-01  4.377100E-01
 4.377099E-01  4.377100E-01  4.377100E-01  4.377100E-01  4.377100E-01  4.377100E-01  4.377100E-01  4.377100E-01  4.377100E-01  4.377100E-01
 4.377099E-01  4.377100E-01  4.377100E-01  4.377100E-01  4.377100E-01  4.377100E-01  4.377100E-01  4.377100E-01  4.377100E-01  4.377100E-01
 4.377099E-01  4.377100E-01  4.377100E-01  4.377100E-01  4.377100E-01  4.377100E-01  4.377100E-01  4.377100E-01  4.377100E-01  4.377100E-01
 4.377099E-01  4.377100E-01  4.377100E-01  4.377100E-01  4.377100E-01  4.377100E-01  4.377100E-01  4.377100E-01  4.377100E-01  4.377100E-01
 4.377099E-01  4.377100E-01  4.377100E-01  4.377100E-01  4.377100E-01  4.377100E-01  4.377100E-01  4.377100E-01  4.377100E-01  4.377100E-01
 4.377099E-01  4.377100E-01  4.377100E-01  4.377100E-01  4.377100E-01  4.377100E-01  4.377100E-01  4.377100E-01  4.377100E-01  4.377100E-01
 4.377100E-01  4.377100E-01  4.377100E-01  4.377100E-01  4.377100E-01  4.377100E-01  4.377100E-01  4.377100E-01  4.377100E-01  4.377100E-01
 4.377100E-01  4.377100E-01  4.377100E-01  4.377100E-01  4.377100E-01  4.377100E-01  4.377100E-01  4.377100E-01  4.377100E-01  4.377100E-01
 4.377100E-01  4.377100E-01  4.377100E-01  4.377100E-01  4.377100E-01  4.377100E-01  4.377100E-01  4.377100E-01  4.377100E-01  4.377100E-01
 4.377100E-01  4.377100E-01  4.377100E-01  4.377100E-01  4.377100E-01  4.377100E-01  4.377100E-01  4.377100E-01  4.377100E-01  4.377100E-01
 4.377100E-01  4.377100E-01  4.377100E-01  4.377100E-01  4.377100E-01  4.377100E-01  4.377100E-01  4.377100E-01  4.377100E-01  4.377100E-01
 4.377100E-01  4.377100E-01  4.377100E-01  4.377100E-01  4.377100E-01  4.377100E-01  4.377100E-01  4.377100E-01  4.377100E-01  4.377100E-01


SCALARS Permeability         float 1
LOOKUP_TABLE default
 8.829805E-13  8.829805E-13  8.829804E-13  8.829804E-13  8.829804E-13  8.829804E-13  8.829804E-13  8.829804E-13  8.829804E-13  8.829804E-13
 8.829805E-13  8.829805E-13  8.829804E-13  8.829804E-13  8.829804E-13  8.829804E-13  8.829804E-13  8.829804E-13  8.829804E-13  8.829804E-13
 8.829805E-13  8.829805E-13  8.829804E-13  8.829804E-13  8.829804E-13  8.829804E-13  8.829804E-13  8.829804E-13  8.829804E-13  8.829804E-13
 8.829805E-13  8.829805E-13  8.829804E-13  8.829804E-13  8.829804E-13  8.829804E-13  8.829804E-13  8.829804E-13  8.829804E-13  8.829804E-13
 8.829806E-13  8.829805E-13  8.829804E-13  8.829804E-13  8.829804E-13  8.829804E-13  8.829804E-13  8.829804E-13  8.829804E-13  8.829804E-13
 8.829806E-13  8.829805E-13  8.829804E-13  8.829804E-13  8.829804E-13  8.829804E-13  8.829804E-13  8.829804E-13  8.829804E-13  8.829804E-13
 8.829800E-13  8.829805E-13  8.829804E-13  8.829804E-13  8.829804E-13  8.829804E-13  8.829804E-13  8.829804E-13  8.829804E-13  8.829804E-13
 8.829800E-13  8.829805E-13  8.829805E-13  8.829804E-13  8.829804E-13  8.829804E-13  8.829804E-13  8.829804E-13  8.829804E-13  8.829804E-13
 8.829800E-13  8.829805E-13  8.829805E-13  8.829804E-13  8.829804E-13  8.829804E-13  8.829804E-13  8.829804E-13  8.829804E-13  8.829804E-13
 8.829801E-13  8.829805E-13  8.829805E-13  8.829804E-13  8.829804E-13  8.829804E-13  8.829804E-13  8.829804E-13  8.829804E-13  8.829804E-13
 8.829801E-13  8.829805E-13  8.829805E-13  8.829804E-13  8.829804E-13  8.829804E-13  8.829804E-13  8.829804E-13  8.829804E-13  8.829804E-13
 8.829801E-13  8.829805E-13  8.829805E-13  8.829804E-13  8.829804E-13  8.829804E-13  8.829804E-13  8.829804E-13  8.829804E-13  8.829804E-13
 8.829801E-13  8.829805E-13  8.829805E-13  8.829804E-13  8.829804E-13  8.829804E-13  8.829804E-13  8.829804E-13  8.829804E-13  8.829804E-13
 8.829801E-13  8.829805E-13  8.829805E-13  8.829805E-13  8.829804E-13  8.829804E-13  8.829804E-13  8.829804E-13  8.829804E-13  8.829804E-13
 8.829806E-13  8.829805E-13  8.829805E-13  8.829805E-13  8.829804E-13  8.829804E-13  8.829804E-13  8.829804E-13  8.829804E-13  8.829804E-13
 8.829806E-13  8.829805E-13  8.829805E-13  8.829805E-13  8.829804E-13  8.829804E-13  8.829804E-13  8.829804E-13  8.829804E-13  8.829804E-13
 8.829806E-13  8.829805E-13  8.829805E-13  8.829805E-13  8.829805E-13  8.829804E-13  8.829804E-13  8.829804E-13  8.829804E-13  8.829804E-13
 8.829806E-13  8.829805E-13  8.829805E-13  8.829805E-13  8.829805E-13  8.829804E-13  8.829804E-13  8.829804E-13  8.829804E-13  8.829804E-13
 8.829806E-13  8.829805E-13  8.829805E-13  8.829805E-13  8.829805E-13  8.829805E-13  8.829804E-13  8.829804E-13  8.829804E-13  8.829804E-13
 8.829806E-13  8.829805E-13  8.829805E-13  8.829805E-13  8.829805E-13  8.829805E-13  8.829805E-13  8.829804E-13  8.829804E-13  8.829804E-13


SCALARS Liquid_Pressure      float 1
LOOKUP_TABLE default
 8.211660E+06  7.849761E+06  7.694509E+06  7.613513E+06  7.569039E+06  7.543162E+06  7.525845E+06  7.511539E+06  7.497721E+06  7.483938E+06
 8.166495E+06  7.804600E+06  7.649352E+06  7.568359E+06  7.523885E+06  7.498010E+06  7.480692E+06  7.466387E+06  7.452570E+06  7.438786E+06
 8.121336E+06  7.759441E+06  7.604197E+06  7.523206E+06  7.478733E+06  7.452858E+06  7.435541E+06  7.421236E+06  7.407419E+06  7.393636E+06
 8.076184E+06  7.714283E+06  7.559043E+06  7.478053E+06  7.433582E+06  7.407708E+06  7.390391E+06  7.376086E+06  7.362270E+06  7.348488E+06
 8.031037E+06  7.669126E+06  7.513890E+06  7.432903E+06  7.388433E+06  7.362559E+06  7.345243E+06  7.330938E+06  7.317122E+06  7.303340E+06
 7.985896E+06  7.623971E+06  7.468739E+06  7.387753E+06  7.343284E+06  7.317411E+06  7.300096E+06  7.285791E+06  7.271976E+06  7.258194E+06
 7.940761E+06  7.578817E+06  7.423588E+06  7.342605E+06  7.298137E+06  7.272265E+06  7.254950E+06  7.240646E+06  7.226831E+06  7.213049E+06
 7.895621E+06  7.533664E+06  7.378439E+06  7.297458E+06  7.252991E+06  7.227120E+06  7.209805E+06  7.195501E+06  7.181687E+06  7.167905E+06
 7.850474E+06  7.488512E+06  7.333292E+06  7.252312E+06  7.207847E+06  7.181976E+06  7.164661E+06  7.150358E+06  7.136544E+06  7.122763E+06
 7.805322E+06  7.443362E+06  7.288145E+06  7.207168E+06  7.162703E+06  7.136833E+06  7.119519E+06  7.105216E+06  7.091402E+06  7.077622E+06
 7.760164E+06  7.398213E+06  7.243000E+06  7.162025E+06  7.117561E+06  7.091692E+06  7.074378E+06  7.060076E+06  7.046262E+06  7.032482E+06
 7.714999E+06  7.353065E+06  7.197856E+06  7.116883E+06  7.072421E+06  7.046552E+06  7.029238E+06  7.014936E+06  7.001123E+06  6.987343E+06
 7.669829E+06  7.307918E+06  7.152713E+06  7.071742E+06  7.027281E+06  7.001413E+06  6.984100E+06  6.969798E+06  6.955985E+06  6.942206E+06
 7.624653E+06  7.262773E+06  7.107572E+06  7.026603E+06  6.982143E+06  6.956275E+06  6.938963E+06  6.924662E+06  6.910849E+06  6.897070E+06
 7.579472E+06  7.217629E+06  7.062432E+06  6.981465E+06  6.937006E+06  6.911139E+06  6.893827E+06  6.879526E+06  6.865714E+06  6.851935E+06
 7.534296E+06  7.172486E+06  7.017293E+06  6.936328E+06  6.891870E+06  6.866004E+06  6.848692E+06  6.834392E+06  6.820580E+06  6.806801E+06
 7.489126E+06  7.127344E+06  6.972155E+06  6.891192E+06  6.846736E+06  6.820870E+06  6.803559E+06  6.789259E+06  6.775447E+06  6.761669E+06
 7.443962E+06  7.082204E+06  6.927019E+06  6.846058E+06  6.801602E+06  6.775737E+06  6.758427E+06  6.744127E+06  6.730316E+06  6.716538E+06
 7.398805E+06  7.037065E+06  6.881884E+06  6.800925E+06  6.756470E+06  6.730606E+06  6.713296E+06  6.698996E+06  6.685185E+06  6.671408E+06
 7.353653E+06  6.991927E+06  6.836750E+06  6.755793E+06  6.711340E+06  6.685476E+06  6.668166E+06  6.653867E+06  6.640057E+06  6.626279E+06


SCALARS Temperature          float 1
LOOKUP_TABLE default
 1.500416E+02  1.500202E+02  1.500110E+02  1.500062E+02  1.500036E+02  1.500020E+02  1.500010E+02  1.500002E+02  1.499993E+02  1.499985E+02
 1.500416E+02  1.500202E+02  1.500110E+02  1.500062E+02  1.500036E+02  1.500020E+02  1.500010E+02  1.500002E+02  1.499993E+02  1.499985E+02
 1.500416E+02  1.500202E+02  1.500110E+02  1.500062E+02  1.500036E+02  1.500020E+02  1.500010E+02  1.500002E+02  1.499993E+02  1.499985E+02
 1.500416E+02  1.500202E+02  1.500110E+02  1.500062E+02  1.500036E+02  1.500020E+02  1.500010E+02  1.500002E+02  1.499993E+02  1.499985E+02
 1.500416E+02  1.500202E+02  1.500110E+02  1.500062E+02  1.500036E+02  1.500020E+02  1.500010E+02  1.500002E+02  1.499993E+02  1.499985E+02
 1.500416E+02  1.500202E+02  1.500110E+02  1.500062E+02  1.500036E+02  1.500020E+02  1.500010E+02  1.500002E+02  1.499993E+02  1.499985E+02
 1.500415E+02  1.500202E+02  1.500110E+02  1.500062E+02  1.500036E+02  1.500020E+02  1.500010E+02  1.500002E+02  1.499993E+02  1.499985E+02
 1.500415E+02  1.500202E+02  1.500110E+02  1.500062E+02  1.500036E+02  1.500020E+02  1.500010E+02  1.500002E+02  1.499993E+02  1.499985E+02
 1.500415E+02  1.500202E+02  1.500110E+02  1.500062E+02  1.500036E+02  1.500020E+02  1.500010E+02  1.500002E+02  1.499993E+02  1.499985E+02
 1.500415E+02  1.500202E+02  1.500110E+02  1.500062E+02  1.500036E+02  1.500020E+02  1.500010E+02  1.500002E+02  1.499993E+02  1.499985E+02
 1.500415E+02  1.500202E+02  1.500110E+02  1.500062E+02  1.500036E+02  1.500020E+02  1.500010E+02  1.500002E+02  1.499993E+02  1.499985E+02
 1.500416E+02  1.500202E+02  1.500110E+02  1.500062E+02  1.500036E+02  1.500020E+02  1.500010E+02  1.500002E+02  1.499994E+02  1.499985E+02
 1.500416E+02  1.500202E+02  1.500110E+02  1.500062E+02  1.500036E+02  1.500020E+02  1.500010E+02  1.500002E+02  1.499994E+02  1.499985E+02
 1.500416E+02  1.500202E+02  1.500110E+02  1.500062E+02  1.500036E+02  1.500020E+02  1.500010E+02  1.500002E+02  1.499994E+02  1.499985E+02
 1.500417E+02  1.500202E+02  1.500110E+02  1.500062E+02  1.500036E+02  1.500020E+02  1.500010E+02  1.500002E+02  1.499994E+02  1.499985E+02
 1.500417E+02  1.500202E+02  1.500110E+02  1.500062E+02  1.500036E+02  1.500020E+02  1.500010E+02  1.500002E+02  1.499994E+02  1.499985E+02
 1.500417E+02  1.500202E+02  1.500110E+02  1.500062E+02  1.500036E+02  1.500020E+02  1.500010E+02  1.500002E+02  1.499994E+02  1.499985E+02
 1.500417E+02  1.500203E+02  1.500110E+02  1.500062E+02  1.500036E+02  1.500020E+02  1.500010E+02  1.500002E+02  1.499994E+02  1.499985E+02
 1.500417E+02  1.500203E+02  1.500110E+02  1.500062E+02  1.500036E+02  1.500020E+02  1.500010E+02  1.500002E+02  1.499994E+02  1.499985E+02
 1.500417E+02  1.500203E+02  1.500110E+02  1.500062E+02  1.500036E+02  1.500021E+02  1.500010E+02  1.500002E+02  1.499994E+02  1.499985E+02


SCALARS pH                   float 1
LOOKUP_TABLE default
 6.144299E+00  6.144267E+00  6.144254E+00  6.144247E+00  6.144243E+00  6.144240E+00  6.144239E+00  6.144238E+00  6.144236E+00  6.144235E+00
 6.144299E+00  6.144267E+00  6.144254E+00  6.144247E+00  6.144243E+00  6.144240E+00  6.144239E+00  6.144238E+00  6.144236E+00  6.144235E+00
 6.144299E+00  6.144267E+00  6.144254E+00  6.144247E+00  6.144243E+00  6.144240E+00  6.144239E+00  6.144238E+00  6.144236E+00  6.144235E+00
 6.144299E+00  6.144267E+00  6.144254E+00  6.144247E+00  6.144243E+00  6.144240E+00  6.144239E+00  6.144238E+00  6.144236E+00  6.144235E+00
 6.144299E+00  6.144267E+00  6.144254E+00  6.144247E+00  6.144243E+00  6.144240E+00  6.144239E+00  6.144238E+00  6.144236E+00  6.144235E+00
 6.144299E+00  6.144267E+00  6.144254E+00  6.144247E+00  6.144243E+00  6.144240E+00  6.144239E+00  6.144238E+00  6.144236E+00  6.144235E+00
 6.144302E+00  6.144267E+00  6.144254E+00  6.144247E+00  6.144243E+00  6.144240E+00  6.144239E+00  6.144238E+00  6.144236E+00  6.144235E+00
 6.144302E+00  6.144267E+00  6.144254E+00  6.144247E+00  6.144243E+00  6.144240E+00  6.144239E+00  6.144238E+00  6.144236E+00  6.144235E+00
 6.144302E+00  6.144267E+00  6.144254E+00  6.144247E+00  6.144243E+00  6.144240E+00  6.144239E+00  6.144238E+00  6.144236E+00  6.144235E+00
 6.144302E+00  6.144267E+00  6.144254E+00  6.144247E+00  6.144243E+00  6.144240E+00  6.144239E+00  6.144238E+00  6.144236E+00  6.144235E+00
 6.144302E+00  6.144267E+00  6.144254E+00  6.144247E+00  6.144243E+00  6.144240E+00  6.144239E+00  6.144238E+00  6.144236E+00  6.144235E+00
 6.144302E+00  6.144267E+00  6.144254E+00  6.144247E+00  6.144243E+00  6.144240E+00  6.144239E+00  6.144238E+00  6.144236E+00  6.144235E+00
 6.144301E+00  6.144268E+00  6.144254E+00  6.144247E+00  6.144243E+00  6.144240E+00  6.144239E+00  6.144238E+00  6.144236E+00  6.144235E+00
 6.144301E+00  6.144268E+00  6.144254E+00  6.144247E+00  6.144243E+00  6.144240E+00  6.144239E+00  6.144238E+00  6.144236E+00  6.144235E+00
 6.144299E+00  6.144268E+00  6.144254E+00  6.144247E+00  6.144243E+00  6.144240E+00  6.144239E+00  6.144238E+00  6.144236E+00  6.144235E+00
 6.144299E+00  6.144268E+00  6.144254E+00  6.144247E+00  6.144243E+00  6.144240E+00  6.144239E+00  6.144238E+00  6.144236E+00  6.144235E+00
 6.144299E+00  6.144268E+00  6.144254E+00  6.144247E+00  6.144243E+00  6.144240E+00  6.144239E+00  6.144238E+00  6.144236E+00  6.144235E+00
 6.144299E+00  6.144268E+00  6.144254E+00  6.144247E+00  6.144243E+00  6.144240E+00  6.144239E+00  6.144238E+00  6.144236E+00  6.144235E+00
 6.144299E+00  6.144268E+00  6.144254E+00  6.144247E+00  6.144243E+00  6.144240E+00  6.144239E+00  6.144238E+00  6.144236E+00  6.144235E+00
 6.144299E+00  6.144268E+00  6.144254E+00  6.144247E+00  6.144243E+00  6.144240E+00  6.144239E+00  6.144238E+00  6.144236E+00  6.144235E+00


SCALARS Total_H+             float 1
LOOKUP_TABLE default
-3.049060E-03 -3.049808E-03 -3.050131E-03 -3.050300E-03 -3.050394E-03 -3.050448E-03 -3.050484E-03 -3.050514E-03 -3.050543E-03 -3.050571E-03
-3.049060E-03 -3.049807E-03 -3.050131E-03 -3.050300E-03 -3.050393E-03 -3.050447E-03 -3.050484E-03 -3.050514E-03 -3.050542E-03 -3.050570E-03
-3.049060E-03 -3.049807E-03 -3.050130E-03 -3.050300E-03 -3.050393E-03 -3.050447E-03 -3.050483E-03 -3.050513E-03 -3.050542E-03 -3.050570E-03
-3.049059E-03 -3.049806E-03 -3.050130E-03 -3.050299E-03 -3.050392E-03 -3.050447E-03 -3.050483E-03 -3.050513E-03 -3.050542E-03 -3.050570E-03
-3.049059E-03 -3.049806E-03 -3.050130E-03 -3.050299E-03 -3.050392E-03 -3.050446E-03 -3.050483E-03 -3.050513E-03 -3.050541E-03 -3.050569E-03
-3.049059E-03 -3.049806E-03 -3.050129E-03 -3.050298E-03 -3.050392E-03 -3.050446E-03 -3.050482E-03 -3.050512E-03 -3.050541E-03 -3.050569E-03
-3.049031E-03 -3.049805E-03 -3.050129E-03 -3.050298E-03 -3.050391E-03 -3.050446E-03 -3.050482E-03 -3.050512E-03 -3.050541E-03 -3.050569E-03
-3.049030E-03 -3.049805E-03 -3.050128E-03 -3.050298E-03 -3.050391E-03 -3.050445E-03 -3.050482E-03 -3.050512E-03 -3.050540E-03 -3.050568E-03
-3.049029E-03 -3.049804E-03 -3.050128E-03 -3.050297E-03 -3.050391E-03 -3.050445E-03 -3.050481E-03 -3.050511E-03 -3.050540E-03 -3.050568E-03
-3.049029E-03 -3.049804E-03 -3.050128E-03 -3.050297E-03 -3.050390E-03 -3.050445E-03 -3.050481E-03 -3.050511E-03 -3.050540E-03 -3.050568E-03
-3.049028E-03 -3.049803E-03 -3.050127E-03 -3.050297E-03 -3.050390E-03 -3.050444E-03 -3.050481E-03 -3.050511E-03 -3.050539E-03 -3.050567E-03
-3.049028E-03 -3.049803E-03 -3.050127E-03 -3.050296E-03 -3.050390E-03 -3.050444E-03 -3.050480E-03 -3.050510E-03 -3.050539E-03 -3.050567E-03
-3.049027E-03 -3.049802E-03 -3.050126E-03 -3.050296E-03 -3.050389E-03 -3.050444E-03 -3.050480E-03 -3.050510E-03 -3.050539E-03 -3.050567E-03
-3.049026E-03 -3.049802E-03 -3.050126E-03 -3.050296E-03 -3.050389E-03 -3.050443E-03 -3.050480E-03 -3.050510E-03 -3.050538E-03 -3.050566E-03
-3.049051E-03 -3.049802E-03 -3.050126E-03 -3.050295E-03 -3.050389E-03 -3.050443E-03 -3.050479E-03 -3.050509E-03 -3.050538E-03 -3.050566E-03
-3.049051E-03 -3.049801E-03 -3.050125E-03 -3.050295E-03 -3.050388E-03 -3.050443E-03 -3.050479E-03 -3.050509E-03 -3.050538E-03 -3.050566E-03
-3.049051E-03 -3.049801E-03 -3.050125E-03 -3.050294E-03 -3.050388E-03 -3.050442E-03 -3.050479E-03 -3.050509E-03 -3.050537E-03 -3.050565E-03
-3.049050E-03 -3.049800E-03 -3.050124E-03 -3.050294E-03 -3.050387E-03 -3.050442E-03 -3.050478E-03 -3.050508E-03 -3.050537E-03 -3.050565E-03
-3.049050E-03 -3.049800E-03 -3.050124E-03 -3.050294E-03 -3.050387E-03 -3.050442E-03 -3.050478E-03 -3.050508E-03 -3.050537E-03 -3.050565E-03
-3.049050E-03 -3.049799E-03 -3.050124E-03 -3.050293E-03 -3.050387E-03 -3.050441E-03 -3.050478E-03 -3.050508E-03 -3.050536E-03 -3.050564E-03


SCALARS Total_SiO2(aq)       float 1
LOOKUP_TABLE default
 1.039560E-02  1.039377E-02  1.039298E-02  1.039257E-02  1.039235E-02  1.039222E-02  1.039213E-02  1.039206E-02  1.039199E-02  1.039192E-02
 1.039560E-02  1.039377E-02  1.039298E-02  1.039257E-02  1.039235E-02  1.039222E-02  1.039213E-02  1.039206E-02  1.039199E-02  1.039192E-02
 1.039560E-02  1.039377E-02  1.039298E-02  1.039257E-02  1.039235E-02  1.039222E-02  1.039213E-02  1.039206E-02  1.039199E-02  1.039192E-02
 1.039560E-02  1.039377E-02  1.039298E-02  1.039257E-02  1.039235E-02  1.039222E-02  1.039213E-02  1.039206E-02  1.039199E-02  1.039192E-02
 1.039560E-02  1.039377E-02  1.039298E-02  1.039257E-02  1.039235E-02  1.039222E-02  1.039213E-02  1.039206E-02  1.039199E-02  1.039192E-02
 1.039560E-02  1.039377E-02  1.039298E-02  1.039257E-02  1.039235E-02  1.039222E-02  1.039213E-02  1.039206E-02  1.039199E-02  1.039192E-02
 1.039583E-02  1.039377E-02  1.039298E-02  1.039257E-02  1.039235E-02  1.039222E-02  1.039213E-02  1.039206E-02  1.039199E-02  1.039192E-02
 1.039583E-02  1.039377E-02  1.039298E-02  1.039257E-02  1.039235E-02  1.039222E-02  1.039213E-02  1.039206E-02  1.039199E-02  1.039192E-02
 1.039583E-02  1.039377E-02  1.039298E-02  1.039257E-02  1.039235E-02  1.039222E-02  1.039213E-02  1.039206E-02  1.039199E-02  1.039192E-02
 1.039583E-02  1.039377E-02  1.039298E-02  1.039257E-02  1.039235E-02  1.039222E-02  1.039213E-02  1.039206E-02  1.039199E-02  1.039192E-02
 1.039583E-02  1.039377E-02  1.039298E-02  1.039257E-02  1.039235E-02  1.039222E-02  1.039213E-02  1.039206E-02  1.039199E-02  1.039192E-02
 1.039583E-02  1.039377E-02  1.039298E-02  1.039257E-02  1.039235E-02  1.039222E-02  1.039213E-02  1.039206E-02  1.039199E-02  1.039192E-02
 1.039584E-02  1.039377E-02  1.039298E-02  1.039257E-02  1.039235E-02  1.039222E-02  1.039213E-02  1.039206E-02  1.039199E-02  1.039192E-02
 1.039584E-02  1.039377E-02  1.039298E-02  1.039257E-02  1.039235E-02  1.039222E-02  1.039213E-02  1.039206E-02  1.039199E-02  1.039192E-02
 1.039562E-02  1.039377E-02  1.039298E-02  1.039257E-02  1.039235E-02  1.039222E-02  1.039213E-02  1.039206E-02  1.039199E-02  1.039192E-02
 1.039562E-02  1.039377E-02  1.039298E-02  1.039257E-02  1.039235E-02  1.039222E-02  1.039213E-02  1.039206E-02  1.039199E-02  1.039192E-02
 1.039562E-02  1.039377E-02  1.039298E-02  1.039257E-02  1.039235E-02  1.039222E-02  1.039213E-02  1.039206E-02  1.039199E-02  1.039192E-02
 1.039562E-02  1.039377E-02  1.039298E-02  1.039257E-02  1.039235E-02  1.039222E-02  1.039213E-02  1.039206E-02  1.039199E-02  1.039192E-02
 1.039561E-02  1.039377E-02  1.039298E-02  1.039257E-02  1.039235E-02  1.039222E-02  1.039213E-02  1.039206E-02  1.039199E-02  1.039192E-02