# vtk DataFile Version 2.0
PFLOTRAN output
ASCII
DATASET UNSTRUCTURED_GRID
POINTS          462 float
 0.000000E+00  0.000000E+00  0.000000E+00
 1.000000E+01  0.000000E+00  0.000000E+00
 2.000000E+01  0.000000E+00  0.000000E+00
 3.000000E+01  0.000000E+00  0.000000E+00
 4.000000E+01  0.000000E+00  0.000000E+00
 5.000000E+01  0.000000E+00  0.000000E+00
 6.000000E+01  0.000000E+00  0.000000E+00
 7.000000E+01  0.000000E+00  0.000000E+00
 8.000000E+01  0.000000E+00  0.000000E+00
 9.000000E+01  0.000000E+00  0.000000E+00
 1.000000E+02  0.000000E+00  0.000000E+00
 0.000000E+00  1.000000E+00  0.000000E+00
 1.000000E+01  1.000000E+00  0.000000E+00
 2.000000E+01  1.000000E+00  0.000000E+00
 3.000000E+01  1.000000E+00  0.000000E+00
 4.000000E+01  1.000000E+00  0.000000E+00
 5.000000E+01  1.000000E+00  0.000000E+00
 6.000000E+01  1.000000E+00  0.000000E+00
 7.000000E+01  1.000000E+00  0.000000E+00
 8.000000E+01  1.000000E+00  0.000000E+00
 9.000000E+01  1.000000E+00  0.000000E+00
 1.000000E+02  1.000000E+00  0.000000E+00
 0.000000E+00  0.000000E+00  5.000000E+00
 1.000000E+01  0.000000E+00  5.000000E+00
 2.000000E+01  0.000000E+00  5.000000E+00
 3.000000E+01  0.000000E+00  5.000000E+00
 4.000000E+01  0.000000E+00  5.000000E+00
 5.000000E+01  0.000000E+00  5.000000E+00
 6.000000E+01  0.000000E+00  5.000000E+00
 7.000000E+01  0.000000E+00  5.000000E+00
 8.000000E+01  0.000000E+00  5.000000E+00
 9.000000E+01  0.000000E+00  5.000000E+00
 1.000000E+02  0.000000E+00  5.000000E+00
 0.000000E+00  1.000000E+00  5.000000E+00
 1.000000E+01  1.000000E+00  5.000000E+00
 2.000000E+01  1.000000E+00  5.000000E+00
 3.000000E+01  1.000000E+00  5.000000E+00
 4.000000E+01  1.000000E+00  5.000000E+00
 5.000000E+01  1.000000E+00  5.000000E+00
 6.000000E+01  1.000000E+00  5.000000E+00
 7.000000E+01  1.000000E+00  5.000000E+00
 8.000000E+01  1.000000E+00  5.000000E+00
 9.000000E+01  1.000000E+00  5.000000E+00
 1.000000E+02  1.000000E+00  5.000000E+00
 0.000000E+00  0.000000E+00  1.000000E+01
 1.000000E+01  0.000000E+00  1.000000E+01
 2.000000E+01  0.000000E+00  1.000000E+01
 3.000000E+01  0.000000E+00  1.000000E+01
 4.000000E+01  0.000000E+00  1.000000E+01
 5.000000E+01  0.000000E+00  1.000000E+01
 6.000000E+01  0.000000E+00  1.000000E+01
 7.000000E+01  0.000000E+00  1.000000E+01
 8.000000E+01  0.000000E+00  1.000000E+01
 9.000000E+01  0.000000E+00  1.000000E+01
 1.000000E+02  0.000000E+00  1.000000E+01
 0.000000E+00  1.000000E+00  1.000000E+01
 1.000000E+01  1.000000E+00  1.000000E+01
 2.000000E+01  1.000000E+00  1.000000E+01
 3.000000E+01  1.000000E+00  1.000000E+01
 4.000000E+01  1.000000E+00  1.000000E+01
 5.000000E+01  1.000000E+00  1.000000E+01
 6.000000E+01  1.000000E+00  1.000000E+01
 7.000000E+01  1.000000E+00  1.000000E+01
 8.000000E+01  1.000000E+00  1.000000E+01
 9.000000E+01  1.000000E+00  1.000000E+01
 1.000000E+02  1.000000E+00  1.000000E+01
 0.000000E+00  0.000000E+00  1.500000E+01
 1.000000E+01  0.000000E+00  1.500000E+01
 2.000000E+01  0.000000E+00  1.500000E+01
 3.000000E+01  0.000000E+00  1.500000E+01
 4.000000E+01  0.000000E+00  1.500000E+01
 5.000000E+01  0.000000E+00  1.500000E+01
 6.000000E+01  0.000000E+00  1.500000E+01
 7.000000E+01  0.000000E+00  1.500000E+01
 8.000000E+01  0.000000E+00  1.500000E+01
 9.000000E+01  0.000000E+00  1.500000E+01
 1.000000E+02  0.000000E+00  1.500000E+01
 0.000000E+00  1.000000E+00  1.500000E+01
 1.000000E+01  1.000000E+00  1.500000E+01
 2.000000E+01  1.000000E+00  1.500000E+01
 3.000000E+01  1.000000E+00  1.500000E+01
 4.000000E+01  1.000000E+00  1.500000E+01
 5.000000E+01  1.000000E+00  1.500000E+01
 6.000000E+01  1.000000E+00  1.500000E+01
 7.000000E+01  1.000000E+00  1.500000E+01
 8.000000E+01  1.000000E+00  1.500000E+01
 9.000000E+01  1.000000E+00  1.500000E+01
 1.000000E+02  1.000000E+00  1.500000E+01
 0.000000E+00  0.000000E+00  2.000000E+01
 1.000000E+01  0.000000E+00  2.000000E+01
 2.000000E+01  0.000000E+00  2.000000E+01
 3.000000E+01  0.000000E+00  2.000000E+01
 4.000000E+01  0.000000E+00  2.000000E+01
 5.000000E+01  0.000000E+00  2.000000E+01
 6.000000E+01  0.000000E+00  2.000000E+01
 7.000000E+01  0.000000E+00  2.000000E+01
 8.000000E+01  0.000000E+00  2.000000E+01
 9.000000E+01  0.000000E+00  2.000000E+01
 1.000000E+02  0.000000E+00  2.000000E+01
 0.000000E+00  1.000000E+00  2.000000E+01
 1.000000E+01  1.000000E+00  2.000000E+01
 2.000000E+01  1.000000E+00  2.000000E+01
 3.000000E+01  1.000000E+00  2.000000E+01
 4.000000E+01  1.000000E+00  2.000000E+01
 5.000000E+01  1.000000E+00  2.000000E+01
 6.000000E+01  1.000000E+00  2.000000E+01
 7.000000E+01  1.000000E+00  2.000000E+01
 8.000000E+01  1.000000E+00  2.000000E+01
 9.000000E+01  1.000000E+00  2.000000E+01
 1.000000E+02  1.000000E+00  2.000000E+01
 0.000000E+00  0.000000E+00  2.500000E+01
 1.000000E+01  0.000000E+00  2.500000E+01
 2.000000E+01  0.000000E+00  2.500000E+01
 3.000000E+01  0.000000E+00  2.500000E+01
 4.000000E+01  0.000000E+00  2.500000E+01
 5.000000E+01  0.000000E+00  2.500000E+01
 6.000000E+01  0.000000E+00  2.500000E+01
 7.000000E+01  0.000000E+00  2.500000E+01
 8.000000E+01  0.000000E+00  2.500000E+01
 9.000000E+01  0.000000E+00  2.500000E+01
 1.000000E+02  0.000000E+00  2.500000E+01
 0.000000E+00  1.000000E+00  2.500000E+01
 1.000000E+01  1.000000E+00  2.500000E+01
 2.000000E+01  1.000000E+00  2.500000E+01
 3.000000E+01  1.000000E+00  2.500000E+01
 4.000000E+01  1.000000E+00  2.500000E+01
 5.000000E+01  1.000000E+00  2.500000E+01
 6.000000E+01  1.000000E+00  2.500000E+01
 7.000000E+01  1.000000E+00  2.500000E+01
 8.000000E+01  1.000000E+00  2.500000E+01
 9.000000E+01  1.000000E+00  2.500000E+01
 1.000000E+02  1.000000E+00  2.500000E+01
 0.000000E+00  0.000000E+00  3.000000E+01
 1.000000E+01  0.000000E+00  3.000000E+01
 2.000000E+01  0.000000E+00  3.000000E+01
 3.000000E+01  0.000000E+00  3.000000E+01
 4.000000E+01  0.000000E+00  3.000000E+01
 5.000000E+01  0.000000E+00  3.000000E+01
 6.000000E+01  0.000000E+00  3.000000E+01
 7.000000E+01  0.000000E+00  3.000000E+01
 8.000000E+01  0.000000E+00  3.000000E+01
 9.000000E+01  0.000000E+00  3.000000E+01
 1.000000E+02  0.000000E+00  3.000000E+01
 0.000000E+00  1.000000E+00  3.000000E+01
 1.000000E+01  1.000000E+00  3.000000E+01
 2.000000E+01  1.000000E+00  3.000000E+01
 3.000000E+01  1.000000E+00  3.000000E+01
 4.000000E+01  1.000000E+00  3.000000E+01
 5.000000E+01  1.000000E+00  3.000000E+01
 6.000000E+01  1.000000E+00  3.000000E+01
 7.000000E+01  1.000000E+00  3.000000E+01
 8.000000E+01  1.000000E+00  3.000000E+01
 9.000000E+01  1.000000E+00  3.000000E+01
 1.000000E+02  1.000000E+00  3.000000E+01
 0.000000E+00  0.000000E+00  3.500000E+01
 1.000000E+01  0.000000E+00  3.500000E+01
 2.000000E+01  0.000000E+00  3.500000E+01
 3.000000E+01  0.000000E+00  3.500000E+01
 4.000000E+01  0.000000E+00  3.500000E+01
 5.000000E+01  0.000000E+00  3.500000E+01
 6.000000E+01  0.000000E+00  3.500000E+01
 7.000000E+01  0.000000E+00  3.500000E+01
 8.000000E+01  0.000000E+00  3.500000E+01
 9.000000E+01  0.000000E+00  3.500000E+01
 1.000000E+02  0.000000E+00  3.500000E+01
 0.000000E+00  1.000000E+00  3.500000E+01
 1.000000E+01  1.000000E+00  3.500000E+01
 2.000000E+01  1.000000E+00  3.500000E+01
 3.000000E+01  1.000000E+00  3.500000E+01
 4.000000E+01  1.000000E+00  3.500000E+01
 5.000000E+01  1.000000E+00  3.500000E+01
 6.000000E+01  1.000000E+00  3.500000E+01
 7.000000E+01  1.000000E+00  3.500000E+01
 8.000000E+01  1.000000E+00  3.500000E+01
 9.000000E+01  1.000000E+00  3.500000E+01
 1.000000E+02  1.000000E+00  3.500000E+01
 0.000000E+00  0.000000E+00  4.000000E+01
 1.000000E+01  0.000000E+00  4.000000E+01
 2.000000E+01  0.000000E+00  4.000000E+01
 3.000000E+01  0.000000E+00  4.000000E+01
 4.000000E+01  0.000000E+00  4.000000E+01
 5.000000E+01  0.000000E+00  4.000000E+01
 6.000000E+01  0.000000E+00  4.000000E+01
 7.000000E+01  0.000000E+00  4.000000E+01
 8.000000E+01  0.000000E+00  4.000000E+01
 9.000000E+01  0.000000E+00  4.000000E+01
 1.000000E+02  0.000000E+00  4.000000E+01
 0.000000E+00  1.000000E+00  4.000000E+01
 1.000000E+01  1.000000E+00  4.000000E+01
 2.000000E+01  1.000000E+00  4.000000E+01
 3.000000E+01  1.000000E+00  4.000000E+01
 4.000000E+01  1.000000E+00  4.000000E+01
 5.000000E+01  1.000000E+00  4.000000E+01
 6.000000E+01  1.000000E+00  4.000000E+01
 7.000000E+01  1.000000E+00  4.000000E+01
 8.000000E+01  1.000000E+00  4.000000E+01
 9.000000E+01  1.000000E+00  4.000000E+01
 1.000000E+02  1.000000E+00  4.000000E+01
 0.000000E+00  0.000000E+00  4.500000E+01
 1.000000E+01  0.000000E+00  4.500000E+01
 2.000000E+01  0.000000E+00  4.500000E+01
 3.000000E+01  0.000000E+00  4.500000E+01
 4.000000E+01  0.000000E+00  4.500000E+01
 5.000000E+01  0.000000E+00  4.500000E+01
 6.000000E+01  0.000000E+00  4.500000E+01
 7.000000E+01  0.000000E+00  4.500000E+01
 8.000000E+01  0.000000E+00  4.500000E+01
 9.000000E+01  0.000000E+00  4.500000E+01
 1.000000E+02  0.000000E+00  4.500000E+01
 0.000000E+00  1.000000E+00  4.500000E+01
 1.000000E+01  1.000000E+00  4.500000E+01
 2.000000E+01  1.000000E+00  4.500000E+01
 3.000000E+01  1.000000E+00  4.500000E+01
 4.000000E+01  1.000000E+00  4.500000E+01
 5.000000E+01  1.000000E+00  4.500000E+01
 6.000000E+01  1.000000E+00  4.500000E+01
 7.000000E+01  1.000000E+00  4.500000E+01
 8.000000E+01  1.000000E+00  4.500000E+01
 9.000000E+01  1.000000E+00  4.500000E+01
 1.000000E+02  1.000000E+00  4.500000E+01
 0.000000E+00  0.000000E+00  5.000000E+01
 1.000000E+01  0.000000E+00  5.000000E+01
 2.000000E+01  0.000000E+00  5.000000E+01
 3.000000E+01  0.000000E+00  5.000000E+01
 4.000000E+01  0.000000E+00  5.000000E+01
 5.000000E+01  0.000000E+00  5.000000E+01
 6.000000E+01  0.000000E+00  5.000000E+01
 7.000000E+01  0.000000E+00  5.000000E+01
 8.000000E+01  0.000000E+00  5.000000E+01
 9.000000E+01  0.000000E+00  5.000000E+01
 1.000000E+02  0.000000E+00  5.000000E+01
 0.000000E+00  1.000000E+00  5.000000E+01
 1.000000E+01  1.000000E+00  5.000000E+01
 2.000000E+01  1.000000E+00  5.000000E+01
 3.000000E+01  1.000000E+00  5.000000E+01
[...]
CELL_DATA      200
SCALARS Porosity             float 1
LOOKUP_TABLE default
 4.377025E-01  4.377089E-01  4.377098E-01  4.377100E-01  4.377100E-01  4.377099E-01  4.377099E-01  4.377099E-01  4.377099E-01  4.377099E-01
 4.376424E-01  4.376992E-01  4.377086E-01  4.377098E-01  4.377099E-01  4.377099E-01  4.377099E-01  4.377099E-01  4.377099E-01  4.377098E-01
 4.373889E-01  4.376505E-01  4.377015E-01  4.377090E-01  4.377099E-01  4.377099E-01  4.377099E-01  4.377099E-01  4.377099E-01  4.377098E-01
 4.367074E-01  4.374866E-01  4.376742E-01  4.377056E-01  4.377095E-01  4.377099E-01  4.377099E-01  4.377099E-01  4.377099E-01  4.377098E-01
 4.356182E-01  4.370923E-01  4.375967E-01  4.376949E-01  4.377084E-01  4.377098E-01  4.377099E-01  4.377099E-01  4.377099E-01  4.377098E-01
 4.356974E-01  4.364537E-01  4.374344E-01  4.376698E-01  4.377055E-01  4.377095E-01  4.377099E-01  4.377099E-01  4.377099E-01  4.377098E-01
 4.400844E-01  4.360793E-01  4.372100E-01  4.376300E-01  4.377007E-01  4.377091E-01  4.377098E-01  4.377099E-01  4.377099E-01  4.377098E-01
 4.400858E-01  4.359681E-01  4.370959E-01  4.376032E-01  4.376969E-01  4.377087E-01  4.377098E-01  4.377099E-01  4.377099E-01  4.377098E-01
 4.400867E-01  4.359222E-01  4.370299E-01  4.375849E-01  4.376941E-01  4.377084E-01  4.377098E-01  4.377099E-01  4.377098E-01  4.377097E-01
 4.400870E-01  4.359038E-01  4.369991E-01  4.375756E-01  4.376926E-01  4.377082E-01  4.377098E-01  4.377099E-01  4.377098E-01  4.377097E-01
 4.400865E-01  4.359036E-01  4.369991E-01  4.375756E-01  4.376926E-01  4.377082E-01  4.377098E-01  4.377099E-01  4.377098E-01  4.377097E-01
 4.400853E-01  4.359218E-01  4.370300E-01  4.375850E-01  4.376941E-01  4.377084E-01  4.377098E-01  4.377099E-01  4.377098E-01  4.377097E-01
 4.400835E-01  4.359675E-01  4.370960E-01  4.376033E-01  4.376970E-01  4.377087E-01  4.377098E-01  4.377099E-01  4.377099E-01  4.377097E-01
 4.400813E-01  4.360788E-01  4.372102E-01  4.376302E-01  4.377008E-01  4.377091E-01  4.377098E-01  4.377099E-01  4.377099E-01  4.377098E-01
 4.356958E-01  4.364539E-01  4.374347E-01  4.376700E-01  4.377056E-01  4.377096E-01  4.377099E-01  4.377099E-01  4.377099E-01  4.377098E-01
 4.356184E-01  4.370929E-01  4.375970E-01  4.376950E-01  4.377085E-01  4.377098E-01  4.377099E-01  4.377099E-01  4.377099E-01  4.377098E-01
 4.367082E-01  4.374872E-01  4.376745E-01  4.377057E-01  4.377096E-01  4.377099E-01  4.377099E-01  4.377099E-01  4.377099E-01  4.377098E-01
 4.373896E-01  4.376509E-01  4.377017E-01  4.377091E-01  4.377099E-01  4.377099E-01  4.377099E-01  4.377099E-01  4.377099E-01  4.377098E-01
 4.376428E-01  4.376994E-01  4.377087E-01  4.377099E-01  4.377099E-01  4.377099E-01  4.377099E-01  4.377099E-01  4.377099E-01  4.377098E-01
 4.377027E-01  4.377090E-01  4.377099E-01  4.377100E-01  4.377099E-01  4.377099E-01  4.377099E-01  4.377099E-01  4.377099E-01  4.377098E-01


SCALARS Permeability         float 1
LOOKUP_TABLE default
 1.000000E-12  1.000000E-12  1.000000E-12  1.000000E-12  1.000000E-12  1.000000E-12  1.000000E-12  1.000000E-12  1.000000E-12  1.000000E-12
 1.000000E-12  1.000000E-12  1.000000E-12  1.000000E-12  1.000000E-12  1.000000E-12  1.000000E-12  1.000000E-12  1.000000E-12  1.000000E-12
 1.000000E-12  1.000000E-12  1.000000E-12  1.000000E-12  1.000000E-12  1.000000E-12  1.000000E-12  1.000000E-12  1.000000E-12  1.000000E-12
 1.000000E-12  1.000000E-12  1.000000E-12  1.000000E-12  1.000000E-12  1.000000E-12  1.000000E-12  1.000000E-12  1.000000E-12  1.000000E-12
 1.000000E-12  1.000000E-12  1.000000E-12  1.000000E-12  1.000000E-12  1.000000E-12  1.000000E-12  1.000000E-12  1.000000E-12  1.000000E-12
 1.000000E-12  1.000000E-12  1.000000E-12  1.000000E-12  1.000000E-12  1.000000E-12  1.000000E-12  1.000000E-12  1.000000E-12  1.000000E-12
 1.000000E-12  1.000000E-12  1.000000E-12  1.000000E-12  1.000000E-12  1.000000E-12  1.000000E-12  1.000000E-12  1.000000E-12  1.000000E-12
 1.000000E-12  1.000000E-12  1.000000E-12  1.000000E-12  1.000000E-12  1.000000E-12  1.000000E-12  1.000000E-12  1.000000E-12  1.000000E-12
 1.000000E-12  1.000000E-12  1.000000E-12  1.000000E-12  1.000000E-12  1.000000E-12  1.000000E-12  1.000000E-12  1.000000E-12  1.000000E-12
 1.000000E-12  1.000000E-12  1.000000E-12  1.000000E-12  1.000000E-12  1.000000E-12  1.000000E-12  1.000000E-12  1.000000E-12  1.000000E-12
 1.000000E-12  1.000000E-12  1.000000E-12  1.000000E-12  1.000000E-12  1.000000E-12  1.000000E-12  1.000000E-12  1.000000E-12  1.000000E-12
 1.000000E-12  1.000000E-12  1.000000E-12  1.000000E-12  1.000000E-12  1.000000E-12  1.000000E-12  1.000000E-12  1.000000E-12  1.000000E-12
 1.000000E-12  1.000000E-12  1.000000E-12  1.000000E-12  1.000000E-12  1.000000E-12  1.000000E-12  1.000000E-12  1.000000E-12  1.000000E-12
 1.000000E-12  1.000000E-12  1.000000E-12  1.000000E-12  1.000000E-12  1.000000E-12  1.000000E-12  1.000000E-12  1.000000E-12  1.000000E-12
 1.000000E-12  1.000000E-12  1.000000E-12  1.000000E-12  1.000000E-12  1.000000E-12  1.000000E-12  1.000000E-12  1.000000E-12  1.000000E-12
 1.000000E-12  1.000000E-12  1.000000E-12  1.000000E-12  1.000000E-12  1.000000E-12  1.000000E-12  1.000000E-12  1.000000E-12  1.000000E-12
 1.000000E-12  1.000000E-12  1.000000E-12  1.000000E-12  1.000000E-12  1.000000E-12  1.000000E-12  1.000000E-12  1.000000E-12  1.000000E-12
 1.000000E-12  1.000000E-12  1.000000E-12  1.000000E-12  1.000000E-12  1.000000E-12  1.000000E-12  1.000000E-12  1.000000E-12  1.000000E-12
 1.000000E-12  1.000000E-12  1.000000E-12  1.000000E-12  1.000000E-12  1.000000E-12  1.000000E-12  1.000000E-12  1.000000E-12  1.000000E-12
 1.000000E-12  1.000000E-12  1.000000E-12  1.000000E-12  1.000000E-12  1.000000E-12  1.000000E-12  1.000000E-12  1.000000E-12  1.000000E-12


SCALARS Liquid_Pressure      float 1
LOOKUP_TABLE default
 7.947419E+06  7.907748E+06  7.848768E+06  7.784909E+06  7.723417E+06  7.667046E+06  7.616361E+06  7.571028E+06  7.530424E+06  7.493910E+06
 7.922093E+06  7.875637E+06  7.810973E+06  7.743640E+06  7.680259E+06  7.622907E+06  7.571721E+06  7.526130E+06  7.485389E+06  7.448792E+06
 7.919995E+06  7.857337E+06  7.780446E+06  7.706054E+06  7.638951E+06  7.579697E+06  7.527546E+06  7.481460E+06  7.440456E+06  7.403703E+06
 7.949227E+06  7.854226E+06  7.756861E+06  7.671702E+06  7.599193E+06  7.537246E+06  7.483746E+06  7.436974E+06  7.395606E+06  7.358636E+06
 8.025970E+06  7.867739E+06  7.739353E+06  7.639822E+06  7.560531E+06  7.495309E+06  7.440195E+06  7.392607E+06  7.350809E+06  7.313586E+06
 8.181869E+06  7.897682E+06  7.726032E+06  7.609271E+06  7.522370E+06  7.453584E+06  7.396739E+06  7.348286E+06  7.306033E+06  7.268541E+06
 8.480014E+06  7.937499E+06  7.713417E+06  7.578534E+06  7.484009E+06  7.411732E+06  7.353213E+06  7.303928E+06  7.261240E+06  7.223493E+06
 8.628274E+06  7.961673E+06  7.696467E+06  7.545908E+06  7.444723E+06  7.369416E+06  7.309455E+06  7.259457E+06  7.216397E+06  7.178433E+06
 8.688579E+06  7.963273E+06  7.671666E+06  7.509938E+06  7.403875E+06  7.326341E+06  7.265323E+06  7.214805E+06  7.171474E+06  7.133351E+06
 8.690232E+06  7.941340E+06  7.637089E+06  7.469626E+06  7.360999E+06  7.282290E+06  7.220715E+06  7.169922E+06  7.126449E+06  7.088241E+06
 8.645022E+06  7.896168E+06  7.591932E+06  7.424476E+06  7.315854E+06  7.237148E+06  7.175574E+06  7.124782E+06  7.081309E+06  7.043102E+06
 8.552952E+06  7.827759E+06  7.536195E+06  7.374489E+06  7.268439E+06  7.190914E+06  7.129902E+06  7.079386E+06  7.036057E+06  6.997933E+06
 8.402254E+06  7.735825E+06  7.470685E+06  7.320161E+06  7.218997E+06  7.143704E+06  7.083752E+06  7.033760E+06  6.990702E+06  6.952736E+06
 8.163651E+06  7.621334E+06  7.397331E+06  7.262492E+06  7.167995E+06  7.095737E+06  7.037230E+06  6.987952E+06  6.945266E+06  6.907518E+06
 7.775266E+06  7.491219E+06  7.319648E+06  7.202937E+06  7.116069E+06  7.047306E+06  6.990476E+06  6.942031E+06  6.899781E+06  6.862287E+06
 7.529127E+06  7.370992E+06  7.242679E+06  7.143199E+06  7.063946E+06  6.998750E+06  6.943653E+06  6.896075E+06  6.854280E+06  6.817054E+06
 7.362135E+06  7.267202E+06  7.169902E+06  7.084795E+06  7.012324E+06  6.950406E+06  6.896926E+06  6.850165E+06  6.808801E+06  6.771826E+06
 7.242645E+06  7.180039E+06  7.103205E+06  7.028864E+06  6.961802E+06  6.902579E+06  6.850450E+06  6.804377E+06  6.763376E+06  6.726616E+06
 7.154476E+06  7.108061E+06  7.043450E+06  6.976168E+06  6.912830E+06  6.855512E+06  6.804350E+06  6.758773E+06  6.718035E+06  6.681429E+06
 7.089523E+06  7.049889E+06  6.990961E+06  6.927155E+06  6.865709E+06  6.809375E+06  6.758717E+06  6.713399E+06  6.672799E+06  6.636273E+06


SCALARS Temperature          float 1
LOOKUP_TABLE default
 1.500811E+02  1.500882E+02  1.500975E+02  1.501072E+02  1.501161E+02  1.501230E+02  1.501260E+02  1.501227E+02  1.501122E+02  1.500956E+02
 1.500849E+02  1.500935E+02  1.501041E+02  1.501146E+02  1.501243E+02  1.501324E+02  1.501375E+02  1.501369E+02  1.501278E+02  1.501101E+02
 1.500855E+02  1.500967E+02  1.501095E+02  1.501214E+02  1.501319E+02  1.501407E+02  1.501471E+02  1.501484E+02  1.501410E+02  1.501233E+02
 1.500820E+02  1.500980E+02  1.501141E+02  1.501279E+02  1.501394E+02  1.501489E+02  1.501561E+02  1.501588E+02  1.501531E+02  1.501359E+02
 1.500722E+02  1.500973E+02  1.501182E+02  1.501345E+02  1.501473E+02  1.501575E+02  1.501653E+02  1.501690E+02  1.501646E+02  1.501481E+02
 1.500512E+02  1.500950E+02  1.501226E+02  1.501417E+02  1.501557E+02  1.501666E+02  1.501749E+02  1.501794E+02  1.501761E+02  1.501602E+02
 1.500083E+02  1.500930E+02  1.501285E+02  1.501502E+02  1.501652E+02  1.501765E+02  1.501852E+02  1.501902E+02  1.501876E+02  1.501721E+02
 1.500026E+02  1.501000E+02  1.501383E+02  1.501605E+02  1.501757E+02  1.501870E+02  1.501956E+02  1.502008E+02  1.501987E+02  1.501833E+02
 1.500009E+02  1.501049E+02  1.501456E+02  1.501687E+02  1.501841E+02  1.501954E+02  1.502041E+02  1.502095E+02  1.502077E+02  1.501924E+02
 1.500008E+02  1.501084E+02  1.501509E+02  1.501747E+02  1.501905E+02  1.502020E+02  1.502107E+02  1.502162E+02  1.502145E+02  1.501990E+02
 1.500008E+02  1.501084E+02  1.501509E+02  1.501747E+02  1.501905E+02  1.502020E+02  1.502108E+02  1.502163E+02  1.502146E+02  1.501992E+02
 1.500022E+02  1.501082E+02  1.501504E+02  1.501745E+02  1.501905E+02  1.502022E+02  1.502111E+02  1.502166E+02  1.502147E+02  1.501987E+02
 1.500056E+02  1.501069E+02  1.501482E+02  1.501725E+02  1.501889E+02  1.502009E+02  1.502099E+02  1.502153E+02  1.502128E+02  1.501961E+02
 1.500134E+02  1.501046E+02  1.501445E+02  1.501689E+02  1.501857E+02  1.501979E+02  1.502071E+02  1.502122E+02  1.502090E+02  1.501913E+02
 1.500694E+02  1.501174E+02  1.501483E+02  1.501697E+02  1.501852E+02  1.501969E+02  1.502057E+02  1.502102E+02  1.502056E+02  1.501864E+02
 1.501037E+02  1.501318E+02  1.501552E+02  1.501732E+02  1.501871E+02  1.501980E+02  1.502061E+02  1.502094E+02  1.502029E+02  1.501815E+02
 1.501267E+02  1.501451E+02  1.501630E+02  1.501781E+02  1.501904E+02  1.502004E+02  1.502077E+02  1.502093E+02  1.502001E+02  1.501759E+02
 1.501434E+02  1.501566E+02  1.501707E+02  1.501835E+02  1.501945E+02  1.502036E+02  1.502096E+02  1.502088E+02  1.501959E+02  1.501684E+02
 1.501560E+02  1.501661E+02  1.501776E+02  1.501887E+02  1.501987E+02  1.502068E+02  1.502107E+02  1.502060E+02  1.501883E+02  1.501574E+02
 1.501654E+02  1.501735E+02  1.501833E+02  1.501932E+02  1.502019E+02  1.502076E+02  1.502068E+02  1.501954E+02  1.501718E+02  1.501389E+02


SCALARS pH                   float 1
LOOKUP_TABLE default
 6.145612E+00  6.145639E+00  6.145669E+00  6.145701E+00  6.145734E+00  6.145767E+00  6.145795E+00  6.145814E+00  6.145814E+00  6.145762E+00
 6.145589E+00  6.145618E+00  6.145647E+00  6.145678E+00  6.145712E+00  6.145745E+00  6.145777E+00  6.145802E+00  6.145812E+00  6.145774E+00
 6.145550E+00  6.145606E+00  6.145637E+00  6.145669E+00  6.145702E+00  6.145736E+00  6.145769E+00  6.145797E+00  6.145812E+00  6.145779E+00
 6.145174E+00  6.145580E+00  6.145631E+00  6.145664E+00  6.145697E+00  6.145731E+00  6.145766E+00  6.145796E+00  6.145814E+00  6.145783E+00
 6.140918E+00  6.145407E+00  6.145620E+00  6.145662E+00  6.145696E+00  6.145731E+00  6.145766E+00  6.145798E+00  6.145818E+00  6.145787E+00
 6.107412E+00  6.143870E+00  6.145570E+00  6.145662E+00  6.145699E+00  6.145734E+00  6.145770E+00  6.145802E+00  6.145825E+00  6.145794E+00
 5.944851E+00  6.135014E+00  6.145297E+00  6.145661E+00  6.145707E+00  6.145742E+00  6.145778E+00  6.145811E+00  6.145835E+00  6.145803E+00
 5.944829E+00  6.132745E+00  6.145178E+00  6.145672E+00  6.145720E+00  6.145755E+00  6.145791E+00  6.145824E+00  6.145849E+00  6.145814E+00
 5.944826E+00  6.131675E+00  6.145107E+00  6.145682E+00  6.145732E+00  6.145767E+00  6.145802E+00  6.145835E+00  6.145860E+00  6.145824E+00
 5.944827E+00  6.131242E+00  6.145076E+00  6.145688E+00  6.145740E+00  6.145775E+00  6.145810E+00  6.145843E+00  6.145868E+00  6.145830E+00
 5.944824E+00  6.131238E+00  6.145072E+00  6.145686E+00  6.145739E+00  6.145774E+00  6.145809E+00  6.145843E+00  6.145868E+00  6.145830E+00
 5.944824E+00  6.131667E+00  6.145103E+00  6.145680E+00  6.145733E+00  6.145769E+00  6.145805E+00  6.145838E+00  6.145863E+00  6.145824E+00
 5.944831E+00  6.132735E+00  6.145173E+00  6.145672E+00  6.145724E+00  6.145761E+00  6.145798E+00  6.145832E+00  6.145855E+00  6.145816E+00
 5.944860E+00  6.135005E+00  6.145294E+00  6.145666E+00  6.145715E+00  6.145753E+00  6.145790E+00  6.145824E+00  6.145847E+00  6.145807E+00
 6.107425E+00  6.143872E+00  6.145577E+00  6.145674E+00  6.145715E+00  6.145753E+00  6.145790E+00  6.145822E+00  6.145843E+00  6.145801E+00
 6.140932E+00  6.145421E+00  6.145639E+00  6.145686E+00  6.145723E+00  6.145759E+00  6.145795E+00  6.145826E+00  6.145843E+00  6.145798E+00
 6.145198E+00  6.145609E+00  6.145663E+00  6.145700E+00  6.145735E+00  6.145771E+00  6.145806E+00  6.145834E+00  6.145846E+00  6.145797E+00
 6.145586E+00  6.145648E+00  6.145683E+00  6.145717E+00  6.145752E+00  6.145787E+00  6.145819E+00  6.145844E+00  6.145849E+00  6.145793E+00
 6.145639E+00  6.145672E+00  6.145704E+00  6.145738E+00  6.145772E+00  6.145806E+00  6.145835E+00  6.145853E+00  6.145849E+00  6.145783E+00
 6.145671E+00  6.145701E+00  6.145733E+00  6.145766E+00  6.145799E+00  6.145829E+00  6.145851E+00  6.145857E+00  6.145838E+00  6.145757E+00


SCALARS Total_H+             float 1
LOOKUP_TABLE default
-3.047617E-03 -3.046436E-03 -3.045008E-03 -3.043376E-03 -3.041579E-03 -3.039660E-03 -3.037691E-03 -3.035769E-03 -3.033994E-03 -3.032613E-03
-3.048837E-03 -3.047747E-03 -3.046409E-03 -3.044839E-03 -3.043068E-03 -3.041126E-03 -3.039077E-03 -3.037032E-03 -3.035123E-03 -3.033613E-03
-3.049553E-03 -3.048422E-03 -3.047104E-03 -3.045584E-03 -3.043853E-03 -3.041926E-03 -3.039851E-03 -3.037738E-03 -3.035742E-03 -3.034171E-03
-3.048752E-03 -3.048948E-03 -3.047558E-03 -3.046046E-03 -3.044347E-03 -3.042443E-03 -3.040364E-03 -3.038211E-03 -3.036151E-03 -3.034542E-03
-3.026238E-03 -3.048823E-03 -3.047889E-03 -3.046333E-03 -3.044647E-03 -3.042764E-03 -3.040691E-03 -3.038516E-03 -3.036410E-03 -3.034777E-03
-2.840268E-03 -3.041111E-03 -3.047965E-03 -3.046475E-03 -3.044782E-03 -3.042917E-03 -3.040855E-03 -3.038668E-03 -3.036532E-03 -3.034890E-03
-2.074833E-03 -2.991216E-03 -3.046637E-03 -3.046436E-03 -3.044752E-03 -3.042906E-03 -3.040860E-03 -3.038674E-03 -3.036520E-03 -3.034883E-03
-2.074735E-03 -2.978129E-03 -3.045709E-03 -3.046199E-03 -3.044561E-03 -3.042752E-03 -3.040733E-03 -3.038556E-03 -3.036396E-03 -3.034775E-03
-2.074661E-03 -2.971860E-03 -3.045066E-03 -3.045981E-03 -3.044371E-03 -3.042587E-03 -3.040586E-03 -3.038417E-03 -3.036257E-03 -3.034652E-03
-2.074642E-03 -2.969289E-03 -3.044711E-03 -3.045811E-03 -3.044209E-03 -3.042433E-03 -3.040442E-03 -3.038277E-03 -3.036118E-03 -3.034532E-03
-2.074686E-03 -2.969323E-03 -3.044736E-03 -3.045828E-03 -3.044220E-03 -3.042441E-03 -3.040446E-03 -3.038280E-03 -3.036119E-03 -3.034531E-03
-2.074779E-03 -2.971867E-03 -3.044987E-03 -3.045849E-03 -3.044206E-03 -3.042402E-03 -3.040391E-03 -3.038218E-03 -3.036063E-03 -3.034490E-03
-2.074921E-03 -2.978088E-03 -3.045507E-03 -3.045901E-03 -3.044206E-03 -3.042363E-03 -3.040326E-03 -3.038144E-03 -3.036000E-03 -3.034447E-03
-2.075071E-03 -2.991077E-03 -3.046269E-03 -3.045940E-03 -3.044182E-03 -3.042294E-03 -3.040226E-03 -3.038037E-03 -3.035912E-03 -3.034383E-03
-2.840111E-03 -3.040606E-03 -3.047286E-03 -3.045688E-03 -3.043930E-03 -3.042026E-03 -3.039946E-03 -3.037766E-03 -3.035680E-03 -3.034199E-03
-3.025535E-03 -3.047903E-03 -3.046839E-03 -3.045200E-03 -3.043463E-03 -3.041551E-03 -3.039469E-03 -3.037315E-03 -3.035293E-03 -3.033888E-03
-3.047552E-03 -3.047600E-03 -3.046112E-03 -3.044539E-03 -3.042803E-03 -3.040881E-03 -3.038805E-03 -3.036697E-03 -3.034773E-03 -3.033474E-03
-3.047888E-03 -3.046645E-03 -3.045256E-03 -3.043693E-03 -3.041939E-03 -3.040005E-03 -3.037951E-03 -3.035925E-03 -3.034138E-03 -3.032977E-03
-3.046723E-03 -3.045551E-03 -3.044165E-03 -3.042570E-03 -3.040789E-03 -3.038857E-03 -3.036865E-03 -3.034981E-03 -3.033390E-03 -3.032401E-03
-3.045092E-03 -3.043861E-03 -3.042411E-03 -3.040773E-03 -3.038989E-03 -3.037127E-03 -3.035309E-03 -3.033692E-03 -3.032386E-03 -3.031614E-03


SCALARS Total_SiO2(aq)       float 1
LOOKUP_TABLE default
 1.040232E-02  1.040012E-02  1.040049E-02  1.040126E-02  1.040203E-02  1.040264E-02  1.040291E-02  1.040266E-02  1.040178E-02  1.040041E-02
 1.042897E-02  1.040486E-02  1.040161E-02  1.040196E-02  1.040273E-02  1.040344E-02  1.040390E-02  1.040387E-02  1.040311E-02  1.040165E-02
 1.053989E-02  1.042643E-02  1.040518E-02  1.040290E-02  1.040342E-02  1.040415E-02  1.040472E-02  1.040485E-02  1.040424E-02  1.040280E-02
 1.084458E-02  1.049818E-02  1.041751E-02  1.040495E-02  1.040421E-02  1.040487E-02  1.040549E-02  1.040574E-02  1.040527E-02  1.040389E-02
 1.143413E-02  1.067336E-02  1.045174E-02  1.041021E-02  1.040538E-02  1.040564E-02  1.040628E-02  1.040662E-02  1.040626E-02  1.040495E-02
 1.226147E-02  1.099259E-02  1.052372E-02  1.042174E-02  1.040735E-02  1.040653E-02  1.040711E-02  1.040751E-02  1.040725E-02  1.040599E-02
 1.310099E-02  1.140824E-02  1.062917E-02  1.043994E-02  1.041028E-02  1.040758E-02  1.040800E-02  1.040843E-02  1.040823E-02  1.040701E-02
 1.310000E-02  1.151955E-02  1.068324E-02  1.045260E-02  1.041283E-02  1.040864E-02  1.040891E-02  1.040934E-02  1.040919E-02  1.040799E-02
 1.309943E-02  1.156911E-02  1.071484E-02  1.046130E-02  1.041477E-02  1.040950E-02  1.040965E-02  1.041009E-02  1.040996E-02  1.040877E-02
 1.309932E-02  1.158919E-02  1.072973E-02  1.046592E-02  1.041598E-02  1.041013E-02  1.041022E-02  1.041066E-02  1.041054E-02  1.040935E-02
 1.309957E-02  1.158926E-02  1.072973E-02  1.046591E-02  1.041598E-02  1.041013E-02  1.041022E-02  1.041067E-02  1.041055E-02  1.040936E-02
 1.310022E-02  1.156953E-02  1.071522E-02  1.046176E-02  1.041530E-02  1.041007E-02  1.041025E-02  1.041070E-02  1.041056E-02  1.040932E-02
 1.310132E-02  1.152033E-02  1.068403E-02  1.045356E-02  1.041392E-02  1.040982E-02  1.041013E-02  1.041058E-02  1.041040E-02  1.040910E-02
 1.310278E-02  1.140939E-02  1.063044E-02  1.044147E-02  1.041199E-02  1.040940E-02  1.040988E-02  1.041032E-02  1.041007E-02  1.040868E-02
 1.226335E-02  1.099434E-02  1.052574E-02  1.042404E-02  1.040983E-02  1.040912E-02  1.040975E-02  1.041015E-02  1.040979E-02  1.040826E-02
 1.143655E-02  1.067600E-02  1.045471E-02  1.041343E-02  1.040875E-02  1.040910E-02  1.040977E-02  1.041009E-02  1.040956E-02  1.040784E-02
 1.084796E-02  1.050188E-02  1.042152E-02  1.040917E-02  1.040855E-02  1.040927E-02  1.040991E-02  1.041008E-02  1.040932E-02  1.040736E-02
 1.054445E-02  1.043130E-02  1.041028E-02  1.040816E-02  1.040876E-02  1.040954E-02  1.041008E-02  1.041005E-02  1.040898E-02  1.040672E-02
 1.043481E-02  1.041092E-02  1.040784E-02  1.040828E-02  1.040911E-02  1.040982E-02  1.041019E-02  1.040982E-02  1.040833E-02  1.040577E-02