# vtk DataFile Version 2.0
PFLOTRAN output
ASCII
DATASET UNSTRUCTURED_GRID
POINTS         4242 float
 0.000000E+00  0.000000E+00  0.000000E+00
 2.000000E+02  0.000000E+00  0.000000E+00
 4.000000E+02  0.000000E+00  0.000000E+00
 6.000000E+02  0.000000E+00  0.000000E+00
 8.000000E+02  0.000000E+00  0.000000E+00
 1.000000E+03  0.000000E+00  0.000000E+00
 1.200000E+03  0.000000E+00  0.000000E+00
 1.400000E+03  0.000000E+00  0.000000E+00
 1.600000E+03  0.000000E+00  0.000000E+00
 1.800000E+03  0.000000E+00  0.000000E+00
 2.000000E+03  0.000000E+00  0.000000E+00
 2.200000E+03  0.000000E+00  0.000000E+00
 2.400000E+03  0.000000E+00  0.000000E+00
 2.600000E+03  0.000000E+00  0.000000E+00
 2.800000E+03  0.000000E+00  0.000000E+00
 3.000000E+03  0.000000E+00  0.000000E+00
 3.200000E+03  0.000000E+00  0.000000E+00
 3.400000E+03  0.000000E+00  0.000000E+00
 3.600000E+03  0.000000E+00  0.000000E+00
 3.800000E+03  0.000000E+00  0.000000E+00
 4.000000E+03  0.000000E+00  0.000000E+00
 4.200000E+03  0.000000E+00  0.000000E+00
 4.400000E+03  0.000000E+00  0.000000E+00
 4.600000E+03  0.000000E+00  0.000000E+00
 4.800000E+03  0.000000E+00  0.000000E+00
 5.000000E+03  0.000000E+00  0.000000E+00
 5.200000E+03  0.000000E+00  0.000000E+00
 5.400000E+03  0.000000E+00  0.000000E+00
 5.600000E+03  0.000000E+00  0.000000E+00
 5.800000E+03  0.000000E+00  0.000000E+00
 6.000000E+03  0.000000E+00  0.000000E+00
 6.200000E+03  0.000000E+00  0.000000E+00
 6.400000E+03  0.000000E+00  0.000000E+00
 6.600000E+03  0.000000E+00  0.000000E+00
 6.800000E+03  0.000000E+00  0.000000E+00
 7.000000E+03  0.000000E+00  0.000000E+00
 7.200000E+03  0.000000E+00  0.000000E+00
 7.400000E+03  0.000000E+00  0.000000E+00
 7.600000E+03  0.000000E+00  0.000000E+00
 7.800000E+03  0.000000E+00  0.000000E+00
 8.000000E+03  0.000000E+00  0.000000E+00
 8.200000E+03  0.000000E+00  0.000000E+00
 8.400000E+03  0.000000E+00  0.000000E+00
 8.600000E+03  0.000000E+00  0.000000E+00
 8.800000E+03  0.000000E+00  0.000000E+00
 9.000000E+03  0.000000E+00  0.000000E+00
 9.200000E+03  0.000000E+00  0.000000E+00
 9.400000E+03  0.000000E+00  0.000000E+00
 9.600000E+03  0.000000E+00  0.000000E+00
 9.800000E+03  0.000000E+00  0.000000E+00
 1.000000E+04  0.000000E+00  0.000000E+00
 1.020000E+04  0.000000E+00  0.000000E+00
 1.040000E+04  0.000000E+00  0.000000E+00
 1.060000E+04  0.000000E+00  0.000000E+00
 1.080000E+04  0.000000E+00  0.000000E+00
 1.100000E+04  0.000000E+00  0.000000E+00
 1.120000E+04  0.000000E+00  0.000000E+00
 1.140000E+04  0.000000E+00  0.000000E+00
 1.160000E+04  0.000000E+00  0.000000E+00
 1.180000E+04  0.000000E+00  0.000000E+00
 1.200000E+04  0.000000E+00  0.000000E+00
 1.220000E+04  0.000000E+00  0.000000E+00
 1.240000E+04  0.000000E+00  0.000000E+00
 1.260000E+04  0.000000E+00  0.000000E+00
 1.280000E+04  0.000000E+00  0.000000E+00
 1.300000E+04  0.000000E+00  0.000000E+00
 1.320000E+04  0.000000E+00  0.000000E+00
 1.340000E+04  0.000000E+00  0.000000E+00
 1.360000E+04  0.000000E+00  0.000000E+00
 1.380000E+04  0.000000E+00  0.000000E+00
 1.400000E+04  0.000000E+00  0.000000E+00
 1.420000E+04  0.000000E+00  0.000000E+00
 1.440000E+04  0.000000E+00  0.000000E+00
 1.460000E+04  0.000000E+00  0.000000E+00
 1.480000E+04  0.000000E+00  0.000000E+00
 1.500000E+04  0.000000E+00  0.000000E+00
 1.520000E+04  0.000000E+00  0.000000E+00
 1.540000E+04  0.000000E+00  0.000000E+00
 1.560000E+04  0.000000E+00  0.000000E+00
 1.580000E+04  0.000000E+00  0.000000E+00
 1.600000E+04  0.000000E+00  0.000000E+00
 1.620000E+04  0.000000E+00  0.000000E+00
 1.640000E+04  0.000000E+00  0.000000E+00
 1.660000E+04  0.000000E+00  0.000000E+00
 1.680000E+04  0.000000E+00  0.000000E+00
 1.700000E+04  0.000000E+00  0.000000E+00
 1.720000E+04  0.000000E+00  0.000000E+00
 1.740000E+04  0.000000E+00  0.000000E+00
 1.760000E+04  0.000000E+00  0.000000E+00
 1.780000E+04  0.000000E+00  0.000000E+00
 1.800000E+04  0.000000E+00  0.000000E+00
 1.820000E+04  0.000000E+00  0.000000E+00
 1.840000E+04  0.000000E+00  0.000000E+00
 1.860000E+04  0.000000E+00  0.000000E+00
 1.880000E+04  0.000000E+00  0.000000E+00
 1.900000E+04  0.000000E+00  0.000000E+00
 1.920000E+04  0.000000E+00  0.000000E+00
 1.940000E+04  0.000000E+00  0.000000E+00
 1.960000E+04  0.000000E+00  0.000000E+00
 1.980000E+04  0.000000E+00  0.000000E+00
 2.000000E+04  0.000000E+00  0.000000E+00
 0.000000E+00  1.000000E+00  0.000000E+00
 2.000000E+02  1.000000E+00  0.000000E+00
 4.000000E+02  1.000000E+00  0.000000E+00
 6.000000E+02  1.000000E+00  0.000000E+00
 8.000000E+02  1.000000E+00  0.000000E+00
 1.000000E+03  1.000000E+00  0.000000E+00
 1.200000E+03  1.000000E+00  0.000000E+00
 1.400000E+03  1.000000E+00  0.000000E+00
 1.600000E+03  1.000000E+00  0.000000E+00
 1.800000E+03  1.000000E+00  0.000000E+00
 2.000000E+03  1.000000E+00  0.000000E+00
 2.200000E+03  1.000000E+00  0.000000E+00
 2.400000E+03  1.000000E+00  0.000000E+00
 2.600000E+03  1.000000E+00  0.000000E+00
 2.800000E+03  1.000000E+00  0.000000E+00
 3.000000E+03  1.000000E+00  0.000000E+00
 3.200000E+03  1.000000E+00  0.000000E+00
 3.400000E+03  1.000000E+00  0.000000E+00
 3.600000E+03  1.000000E+00  0.000000E+00
 3.800000E+03  1.000000E+00  0.000000E+00
 4.000000E+03  1.000000E+00  0.000000E+00
 4.200000E+03  1.000000E+00  0.000000E+00
 4.400000E+03  1.000000E+00  0.000000E+00
 4.600000E+03  1.000000E+00  0.000000E+00
 4.800000E+03  1.000000E+00  0.000000E+00
 5.000000E+03  1.000000E+00  0.000000E+00
 5.200000E+03  1.000000E+00  0.000000E+00
 5.400000E+03  1.000000E+00  0.000000E+00
 5.600000E+03  1.000000E+00  0.000000E+00
 5.800000E+03  1.000000E+00  0.000000E+00
 6.000000E+03  1.000000E+00  0.000000E+00
 6.200000E+03  1.000000E+00  0.000000E+00
 6.400000E+03  1.000000E+00  0.000000E+00
 6.600000E+03  1.000000E+00  0.000000E+00
 6.800000E+03  1.000000E+00  0.000000E+00
 7.000000E+03  1.000000E+00  0.000000E+00
 7.200000E+03  1.000000E+00  0.000000E+00
 7.400000E+03  1.000000E+00  0.000000E+00
 7.600000E+03  1.000000E+00  0.000000E+00
 7.800000E+03  1.000000E+00  0.000000E+00
 8.000000E+03  1.000000E+00  0.000000E+00
 8.200000E+03  1.000000E+00  0.000000E+00
 8.400000E+03  1.000000E+00  0.000000E+00
 8.600000E+03  1.000000E+00  0.000000E+00
 8.800000E+03  1.000000E+00  0.000000E+00
 9.000000E+03  1.000000E+00  0.000000E+00
 9.200000E+03  1.000000E+00  0.000000E+00
 9.400000E+03  1.000000E+00  0.000000E+00
 9.600000E+03  1.000000E+00  0.000000E+00
 9.800000E+03  1.000000E+00  0.000000E+00
 1.000000E+04  1.000000E+00  0.000000E+00
 1.020000E+04  1.000000E+00  0.000000E+00
 1.040000E+04  1.000000E+00  0.000000E+00
 1.060000E+04  1.000000E+00  0.000000E+00
 1.080000E+04  1.000000E+00  0.000000E+00
 1.100000E+04  1.000000E+00  0.000000E+00
 1.120000E+04  1.000000E+00  0.000000E+00
 1.140000E+04  1.000000E+00  0.000000E+00
 1.160000E+04  1.000000E+00  0.000000E+00
 1.180000E+04  1.000000E+00  0.000000E+00
 1.200000E+04  1.000000E+00  0.000000E+00
 1.220000E+04  1.000000E+00  0.000000E+00
 1.240000E+04  1.000000E+00  0.000000E+00
 1.260000E+04  1.000000E+00  0.000000E+00
 1.280000E+04  1.000000E+00  0.000000E+00
 1.300000E+04  1.000000E+00  0.000000E+00
 1.320000E+04  1.000000E+00  0.000000E+00
 1.340000E+04  1.000000E+00  0.000000E+00
 1.360000E+04  1.000000E+00  0.000000E+00
 1.380000E+04  1.000000E+00  0.000000E+00
 1.400000E+04  1.000000E+00  0.000000E+00
 1.420000E+04  1.000000E+00  0.000000E+00
 1.440000E+04  1.000000E+00  0.000000E+00
 1.460000E+04  1.000000E+00  0.000000E+00
 1.480000E+04  1.000000E+00  0.000000E+00
 1.500000E+04  1.000000E+00  0.000000E+00
 1.520000E+04  1.000000E+00  0.000000E+00
 1.540000E+04  1.000000E+00  0.000000E+00
 1.560000E+04  1.000000E+00  0.000000E+00
 1.580000E+04  1.000000E+00  0.000000E+00
 1.600000E+04  1.000000E+00  0.000000E+00
 1.620000E+04  1.000000E+00  0.000000E+00
 1.640000E+04  1.000000E+00  0.000000E+00
 1.660000E+04  1.000000E+00  0.000000E+00
 1.680000E+04  1.000000E+00  0.000000E+00
 1.700000E+04  1.000000E+00  0.000000E+00
 1.720000E+04  1.000000E+00  0.000000E+00
 1.740000E+04  1.000000E+00  0.000000E+00
 1.760000E+04  1.000000E+00  0.000000E+00
 1.780000E+04  1.000000E+00  0.000000E+00
 1.800000E+04  1.000000E+00  0.000000E+00
 1.820000E+04  1.000000E+00  0.000000E+00
 1.840000E+04  1.000000E+00  0.000000E+00
 1.860000E+04  1.000000E+00  0.000000E+00
 1.880000E+04  1.000000E+00  0.000000E+00
 1.900000E+04  1.000000E+00  0.000000E+00
 1.920000E+04  1.000000E+00  0.000000E+00
 1.940000E+04  1.000000E+00  0.000000E+00
 1.960000E+04  1.000000E+00  0.000000E+00
 1.980000E+04  1.000000E+00  0.000000E+00
 2.000000E+04  1.000000E+00  0.000000E+00
 0.000000E+00  0.000000E+00  1.500000E+01
 2.000000E+02  0.000000E+00  1.500000E+01
 4.000000E+02  0.000000E+00  1.500000E+01
 6.000000E+02  0.000000E+00  1.500000E+01
 8.000000E+02  0.000000E+00  1.500000E+01
 1.000000E+03  0.000000E+00  1.500000E+01
 1.200000E+03  0.000000E+00  1.500000E+01
 1.400000E+03  0.000000E+00  1.500000E+01
 1.600000E+03  0.000000E+00  1.500000E+01
 1.800000E+03  0.000000E+00  1.500000E+01
 2.000000E+03  0.000000E+00  1.500000E+01
 2.200000E+03  0.000000E+00  1.500000E+01
 2.400000E+03  0.000000E+00  1.500000E+01
 2.600000E+03  0.000000E+00  1.500000E+01
 2.800000E+03  0.000000E+00  1.500000E+01
 3.000000E+03  0.000000E+00  1.500000E+01
 3.200000E+03  0.000000E+00  1.500000E+01
 3.400000E+03  0.000000E+00  1.500000E+01
 3.600000E+03  0.000000E+00  1.500000E+01
 3.800000E+03  0.000000E+00  1.500000E+01
 4.000000E+03  0.000000E+00  1.500000E+01
 4.200000E+03  0.000000E+00  1.500000E+01
 4.400000E+03  0.000000E+00  1.500000E+01
 4.600000E+03  0.000000E+00  1.500000E+01
 4.800000E+03  0.000000E+00  1.500000E+01
 5.000000E+03  0.000000E+00  1.500000E+01
 5.200000E+03  0.000000E+00  1.500000E+01
 5.400000E+03  0.000000E+00  1.500000E+01
 5.600000E+03  0.000000E+00  1.500000E+01
 5.800000E+03  0.000000E+00  1.500000E+01
 6.000000E+03  0.000000E+00  1.500000E+01
 6.200000E+03  0.000000E+00  1.500000E+01
 6.400000E+03  0.000000E+00  1.500000E+01
[...]
CELL_DATA     2000
SCALARS Vlx                  float 1
LOOKUP_TABLE default
 3.761190E+01  3.670092E+01  3.212872E+01  2.600726E+01  2.108202E+01  1.748285E+01  1.485717E+01  1.289383E+01  1.138181E+01  1.018513E+01
 9.215544E+00  8.414341E+00  7.741260E+00  7.167873E+00  6.673565E+00  6.243037E+00  5.864691E+00  5.529584E+00  5.230704E+00  4.962477E+00
 4.720418E+00  4.500876E+00  4.300848E+00  4.117843E+00  3.949778E+00  3.794893E+00  3.651698E+00  3.518917E+00  3.395453E+00  3.280360E+00
 3.172814E+00  3.072096E+00  2.977575E+00  2.888698E+00  2.804973E+00  2.725965E+00  2.651286E+00  2.580589E+00  2.513566E+00  2.449935E+00
 2.389447E+00  2.331874E+00  2.277011E+00  2.224669E+00  2.174680E+00  2.126889E+00  2.081153E+00  2.037342E+00  1.995339E+00  1.955032E+00
 1.916321E+00  1.879114E+00  1.843325E+00  1.808873E+00  1.775685E+00  1.743694E+00  1.712835E+00  1.683049E+00  1.654282E+00  1.626481E+00
 1.599600E+00  1.573592E+00  1.548417E+00  1.524035E+00  1.500409E+00  1.477505E+00  1.455289E+00  1.433731E+00  1.412803E+00  1.392477E+00
 1.372728E+00  1.353531E+00  1.334864E+00  1.316705E+00  1.299033E+00  1.281829E+00  1.265075E+00  1.248754E+00  1.232848E+00  1.217342E+00
 1.202222E+00  1.187473E+00  1.173081E+00  1.159034E+00  1.145320E+00  1.131926E+00  1.118842E+00  1.106057E+00  1.093561E+00  1.081345E+00
 1.069398E+00  1.057713E+00  1.046281E+00  1.035094E+00  1.024144E+00  1.013427E+00  1.002936E+00  9.926696E-01  9.826314E-01  9.728586E-01
 4.053168E+01  3.831189E+01  3.266859E+01  2.615955E+01  2.112390E+01  1.749499E+01  1.486128E+01  1.289569E+01  1.138298E+01  1.018604E+01
 9.216334E+00  8.415052E+00  7.741911E+00  7.168474E+00  6.674125E+00  6.243560E+00  5.865183E+00  5.530047E+00  5.231142E+00  4.962893E+00
 4.720814E+00  4.501253E+00  4.301208E+00  4.118188E+00  3.950108E+00  3.795211E+00  3.652004E+00  3.519211E+00  3.395737E+00  3.280634E+00
 3.173079E+00  3.072353E+00  2.977825E+00  2.888940E+00  2.805208E+00  2.726193E+00  2.651508E+00  2.580805E+00  2.513776E+00  2.450140E+00
 2.389647E+00  2.332069E+00  2.277201E+00  2.224855E+00  2.174862E+00  2.127067E+00  2.081327E+00  2.037513E+00  1.995505E+00  1.955195E+00
 1.916482E+00  1.879272E+00  1.843479E+00  1.809024E+00  1.775834E+00  1.743840E+00  1.712978E+00  1.683190E+00  1.654420E+00  1.626617E+00
 1.599734E+00  1.573724E+00  1.548547E+00  1.524163E+00  1.500535E+00  1.477628E+00  1.455411E+00  1.433851E+00  1.412921E+00  1.392594E+00
 1.372843E+00  1.353644E+00  1.334976E+00  1.316815E+00  1.299141E+00  1.281936E+00  1.265181E+00  1.248858E+00  1.232951E+00  1.217444E+00
 1.202323E+00  1.187572E+00  1.173179E+00  1.159131E+00  1.145416E+00  1.132021E+00  1.118936E+00  1.106150E+00  1.093653E+00  1.081435E+00
 1.069488E+00  1.057801E+00  1.046368E+00  1.035180E+00  1.024230E+00  1.013512E+00  1.003020E+00  9.927515E-01  9.827100E-01  9.729112E-01
 4.674004E+01  4.164754E+01  3.373120E+01  2.645140E+01  2.120239E+01  1.751679E+01  1.486797E+01  1.289824E+01  1.138434E+01  1.018701E+01
 9.217139E+00  8.415766E+00  7.742562E+00  7.169076E+00  6.674685E+00  6.244083E+00  5.865674E+00  5.530511E+00  5.231580E+00  4.963308E+00
 4.721209E+00  4.501630E+00  4.301568E+00  4.118533E+00  3.950439E+00  3.795529E+00  3.652309E+00  3.519506E+00  3.396022E+00  3.280909E+00
 3.173345E+00  3.072610E+00  2.978074E+00  2.889181E+00  2.805442E+00  2.726421E+00  2.651729E+00  2.581021E+00  2.513986E+00  2.450345E+00
 2.389847E+00  2.332264E+00  2.277392E+00  2.225042E+00  2.175044E+00  2.127245E+00  2.081501E+00  2.037683E+00  1.995672E+00  1.955359E+00
 1.916642E+00  1.879429E+00  1.843633E+00  1.809176E+00  1.775983E+00  1.743986E+00  1.713121E+00  1.683331E+00  1.654558E+00  1.626753E+00
 1.599867E+00  1.573856E+00  1.548676E+00  1.524290E+00  1.500660E+00  1.477752E+00  1.455532E+00  1.433971E+00  1.413039E+00  1.392710E+00
 1.372958E+00  1.353758E+00  1.335087E+00  1.316925E+00  1.299250E+00  1.282044E+00  1.265287E+00  1.248963E+00  1.233054E+00  1.217546E+00
 1.202423E+00  1.187672E+00  1.173277E+00  1.159228E+00  1.145511E+00  1.132115E+00  1.119029E+00  1.106242E+00  1.093744E+00  1.081526E+00
 1.069577E+00  1.057890E+00  1.046455E+00  1.035266E+00  1.024315E+00  1.013596E+00  1.003102E+00  9.928324E-01  9.827863E-01  9.729680E-01
 5.702853E+01  4.694599E+01  3.527985E+01  2.686110E+01  2.131063E+01  1.754634E+01  1.487671E+01  1.290134E+01  1.138585E+01  1.018802E+01
 9.217954E+00  8.416484E+00  7.743215E+00  7.169677E+00  6.675244E+00  6.244606E+00  5.866165E+00  5.530974E+00  5.232018E+00  4.963724E+00
 4.721604E+00  4.502006E+00  4.301928E+00  4.118877E+00  3.950769E+00  3.795846E+00  3.652615E+00  3.519800E+00  3.396306E+00  3.281183E+00
 3.173610E+00  3.072867E+00  2.978323E+00  2.889423E+00  2.805677E+00  2.726649E+00  2.651951E+00  2.581237E+00  2.514196E+00  2.450550E+00
 2.390047E+00  2.332459E+00  2.277582E+00  2.225228E+00  2.175226E+00  2.127422E+00  2.081675E+00  2.037854E+00  1.995839E+00  1.955522E+00
 1.916802E+00  1.879586E+00  1.843787E+00  1.809327E+00  1.776131E+00  1.744131E+00  1.713265E+00  1.683471E+00  1.654697E+00  1.626889E+00
 1.600001E+00  1.573987E+00  1.548806E+00  1.524418E+00  1.500786E+00  1.477875E+00  1.455654E+00  1.434091E+00  1.413158E+00  1.392827E+00
 1.373072E+00  1.353871E+00  1.335199E+00  1.317035E+00  1.299359E+00  1.282151E+00  1.265393E+00  1.249067E+00  1.233157E+00  1.217648E+00
 1.202524E+00  1.187771E+00  1.173376E+00  1.159325E+00  1.145607E+00  1.132210E+00  1.119123E+00  1.106335E+00  1.093836E+00  1.081616E+00
 1.069666E+00  1.057978E+00  1.046543E+00  1.035353E+00  1.024401E+00  1.013680E+00  1.003185E+00  9.929123E-01  9.828612E-01  9.730280E-01
 7.273360E+01  5.458827E+01  3.724261E+01  2.735550E+01  2.143884E+01  1.758095E+01  1.488678E+01  1.290480E+01  1.138745E+01  1.018905E+01
 9.218777E+00  8.417204E+00  7.743868E+00  7.170279E+00  6.675803E+00  6.245129E+00  5.866656E+00  5.531436E+00  5.232456E+00  4.964139E+00
 4.721999E+00  4.502383E+00  4.302288E+00  4.119222E+00  3.951100E+00  3.796163E+00  3.652920E+00  3.520094E+00  3.396589E+00  3.281458E+00
 3.173875E+00  3.073123E+00  2.978572E+00  2.889665E+00  2.805911E+00  2.726877E+00  2.652173E+00  2.581453E+00  2.514406E+00  2.450755E+00
 2.390247E+00  2.332654E+00  2.277772E+00  2.225413E+00  2.175408E+00  2.127600E+00  2.081849E+00  2.038024E+00  1.996006E+00  1.955686E+00
 1.916962E+00  1.879743E+00  1.843941E+00  1.809478E+00  1.776279E+00  1.744277E+00  1.713408E+00  1.683612E+00  1.654835E+00  1.627025E+00
 1.600135E+00  1.574119E+00  1.548935E+00  1.524545E+00  1.500911E+00  1.477999E+00  1.455776E+00  1.434211E+00  1.413276E+00  1.392943E+00
 1.373187E+00  1.353984E+00  1.335310E+00  1.317145E+00  1.299467E+00  1.282258E+00  1.265498E+00  1.249171E+00  1.233260E+00  1.217750E+00
 1.202624E+00  1.187870E+00  1.173474E+00  1.159422E+00  1.145703E+00  1.132305E+00  1.119216E+00  1.106427E+00  1.093927E+00  1.081706E+00
 1.069756E+00  1.058066E+00  1.046630E+00  1.035439E+00  1.024486E+00  1.013763E+00  1.003267E+00  9.929916E-01  9.829351E-01  9.730904E-01
 9.594107E+01  6.512772E+01  3.948856E+01  2.789025E+01  2.157498E+01  1.761742E+01  1.489732E+01  1.290839E+01  1.138909E+01  1.019009E+01
 9.219602E+00  8.417924E+00  7.744520E+00  7.170881E+00  6.676363E+00  6.245652E+00  5.867147E+00  5.531899E+00  5.232893E+00  4.964554E+00
 4.722394E+00  4.502759E+00  4.302647E+00  4.119566E+00  3.951430E+00  3.796481E+00  3.653225E+00  3.520388E+00  3.396873E+00  3.281732E+00
 3.174140E+00  3.073380E+00  2.978820E+00  2.889906E+00  2.806146E+00  2.727105E+00  2.652394E+00  2.581668E+00  2.514617E+00  2.450960E+00
 2.390446E+00  2.332849E+00  2.277963E+00  2.225599E+00  2.175590E+00  2.127778E+00  2.082023E+00  2.038194E+00  1.996173E+00  1.955849E+00
 1.917123E+00  1.879900E+00  1.844095E+00  1.809629E+00  1.776428E+00  1.744423E+00  1.713551E+00  1.683753E+00  1.654973E+00  1.627161E+00
 1.600268E+00  1.574250E+00  1.549065E+00  1.524672E+00  1.501036E+00  1.478122E+00  1.455897E+00  1.434331E+00  1.413394E+00  1.393059E+00
 1.373302E+00  1.354097E+00  1.335422E+00  1.317255E+00  1.299576E+00  1.282365E+00  1.265604E+00  1.249276E+00  1.233363E+00  1.217851E+00
 1.202725E+00  1.187969E+00  1.173572E+00  1.159519E+00  1.145798E+00  1.132399E+00  1.119310E+00  1.106519E+00  1.094018E+00  1.081797E+00
 1.069845E+00  1.058155E+00  1.046717E+00  1.035525E+00  1.024571E+00  1.013847E+00  1.003348E+00  9.930702E-01  9.830085E-01  9.731547E-01
 1.296012E+02  7.926214E+01  4.178921E+01  2.841164E+01  2.170582E+01  1.765231E+01  1.490743E+01  1.291186E+01  1.139069E+01  1.019113E+01
 9.220424E+00  8.418643E+00  7.745173E+00  7.171482E+00  6.676922E+00  6.246174E+00  5.867638E+00  5.532362E+00  5.233331E+00  4.964969E+00
 4.722788E+00  4.503135E+00  4.303007E+00  4.119910E+00  3.951760E+00  3.796798E+00  3.653531E+00  3.520682E+00  3.397157E+00  3.282006E+00
 3.174406E+00  3.073637E+00  2.979069E+00  2.890147E+00  2.806380E+00  2.727332E+00  2.652616E+00  2.581884E+00  2.514826E+00  2.451164E+00
 2.390646E+00  2.333044E+00  2.278153E+00  2.225785E+00  2.175771E+00  2.127956E+00  2.082197E+00  2.038364E+00  1.996339E+00  1.956012E+00
 1.917283E+00  1.880057E+00  1.844249E+00  1.809780E+00  1.776576E+00  1.744568E+00  1.713694E+00  1.683893E+00  1.655111E+00  1.627297E+00
 1.600402E+00  1.574382E+00  1.549194E+00  1.524800E+00  1.501162E+00  1.478246E+00  1.456019E+00  1.434450E+00  1.413512E+00  1.393176E+00
 1.373416E+00  1.354210E+00  1.335533E+00  1.317365E+00  1.299684E+00  1.282472E+00  1.265710E+00  1.249380E+00  1.233466E+00  1.217953E+00
 1.202825E+00  1.188068E+00  1.173669E+00  1.159615E+00  1.145894E+00  1.132494E+00  1.119403E+00  1.106612E+00  1.094110E+00  1.081887E+00
 1.069934E+00  1.058243E+00  1.046805E+00  1.035611E+00  1.024655E+00  1.013930E+00  1.003430E+00  9.931484E-01  9.830815E-01  9.732202E-01
 1.517066E+02  8.912174E+01  4.376138E+01  2.886195E+01  2.181824E+01  1.768232E+01  1.491623E+01  1.291497E+01  1.139220E+01  1.019213E+01
 9.221239E+00  8.419360E+00  7.745825E+00  7.172083E+00  6.677480E+00  6.246697E+00  5.868128E+00  5.532824E+00  5.233768E+00  4.965384E+00
 4.723183E+00  4.503512E+00  4.303366E+00  4.120254E+00  3.952090E+00  3.797115E+00  3.653836E+00  3.520976E+00  3.397441E+00  3.282280E+00
 3.174671E+00  3.073893E+00  2.979318E+00  2.890389E+00  2.806614E+00  2.727560E+00  2.652837E+00  2.582099E+00  2.515036E+00  2.451369E+00
 2.390845E+00  2.333239E+00  2.278343E+00  2.225971E+00  2.175953E+00  2.128133E+00  2.082370E+00  2.038534E+00  1.996506E+00  1.956176E+00
 1.917443E+00  1.880214E+00  1.844403E+00  1.809931E+00  1.776724E+00  1.744714E+00  1.713837E+00  1.684034E+00  1.655249E+00  1.627433E+00
 1.600535E+00  1.574513E+00  1.549323E+00  1.524927E+00  1.501287E+00  1.478369E+00  1.456140E+00  1.434570E+00  1.413630E+00  1.393292E+00
 1.373531E+00  1.354323E+00  1.335645E+00  1.317475E+00  1.299793E+00  1.282579E+00  1.265815E+00  1.249484E+00  1.233569E+00  1.218055E+00
 1.202925E+00  1.188167E+00  1.173767E+00  1.159712E+00  1.145990E+00  1.132588E+00  1.119497E+00  1.106704E+00  1.094201E+00  1.081977E+00
 1.070023E+00  1.058331E+00  1.046892E+00  1.035697E+00  1.024740E+00  1.014013E+00  1.003511E+00  9.932262E-01  9.831544E-01  9.732867E-01
 1.649753E+02  9.532296E+01  4.517833E+01  2.919210E+01  2.190088E+01  1.770460E+01  1.492298E+01  1.291754E+01  1.139356E+01  1.019310E+01
 9.222043E+00  8.420073E+00  7.746475E+00  7.172684E+00  6.678039E+00  6.247219E+00  5.868619E+00  5.533286E+00  5.234205E+00  4.965798E+00
 4.723577E+00  4.503888E+00  4.303726E+00  4.120598E+00  3.952420E+00  3.797432E+00  3.654140E+00  3.521270E+00  3.397724E+00  3.282554E+00
 3.174935E+00  3.074150E+00  2.979566E+00  2.890630E+00  2.806849E+00  2.727787E+00  2.653058E+00  2.582315E+00  2.515246E+00  2.451573E+00
 2.391045E+00  2.333433E+00  2.278533E+00  2.226157E+00  2.176134E+00  2.128311E+00  2.082544E+00  2.038704E+00  1.996672E+00  1.956339E+00
 1.917602E+00  1.880371E+00  1.844557E+00  1.810082E+00  1.776872E+00  1.744859E+00  1.713980E+00  1.684174E+00  1.655387E+00  1.627568E+00
 1.600669E+00  1.574644E+00  1.549452E+00  1.525054E+00  1.501412E+00  1.478492E+00  1.456262E+00  1.434690E+00  1.413747E+00  1.393408E+00
 1.373645E+00  1.354436E+00  1.335756E+00  1.317585E+00  1.299901E+00  1.282686E+00  1.265921E+00  1.249588E+00  1.233672E+00  1.218156E+00
 1.203026E+00  1.188267E+00  1.173865E+00  1.159809E+00  1.146085E+00  1.132683E+00  1.119590E+00  1.106796E+00  1.094292E+00  1.082067E+00
 1.070112E+00  1.058419E+00  1.046979E+00  1.035783E+00  1.024825E+00  1.014097E+00  1.003592E+00  9.933038E-01  9.832271E-01  9.733538E-01
 1.711988E+02  9.831821E+01  4.591618E+01  2.936744E+01  2.194538E+01  1.771706E+01  1.492713E+01  1.291940E+01  1.139473E+01  1.019401E+01
 9.222832E+00  8.420783E+00  7.747125E+00  7.173284E+00  6.678597E+00  6.247741E+00  5.869109E+00  5.533748E+00  5.234642E+00  4.966213E+00
 4.723971E+00  4.504263E+00  4.304085E+00  4.120942E+00  3.952750E+00  3.797748E+00  3.654445E+00  3.521564E+00  3.398007E+00  3.282827E+00
 3.175200E+00  3.074406E+00  2.979815E+00  2.890871E+00  2.807083E+00  2.728015E+00  2.653280E+00  2.582530E+00  2.515456E+00  2.451778E+00
 2.391244E+00  2.333628E+00  2.278723E+00  2.226342E+00  2.176316E+00  2.128488E+00  2.082718E+00  2.038874E+00  1.996839E+00  1.956502E+00
 1.917762E+00  1.880527E+00  1.844711E+00  1.810233E+00  1.777021E+00  1.745005E+00  1.714123E+00  1.684314E+00  1.655525E+00  1.627704E+00
 1.600802E+00  1.574776E+00  1.549582E+00  1.525181E+00  1.501537E+00  1.478615E+00  1.456383E+00  1.434809E+00  1.413865E+00  1.393524E+00
 1.373760E+00  1.354549E+00  1.335867E+00  1.317694E+00  1.300009E+00  1.282793E+00  1.266026E+00  1.249692E+00  1.233775E+00  1.218258E+00
 1.203126E+00  1.188366E+00  1.173963E+00  1.159906E+00  1.146181E+00  1.132777E+00  1.119683E+00  1.106889E+00  1.094383E+00  1.082157E+00
 1.070202E+00  1.058507E+00  1.047066E+00  1.035869E+00  1.024909E+00  1.014179E+00  1.003672E+00  9.933812E-01  9.832998E-01  9.734213E-01
 1.712025E+02  9.832188E+01  4.591944E+01  2.936998E+01  2.194730E+01  1.771859E+01  1.492841E+01  1.292049E+01  1.139569E+01  1.019487E+01
 9.223605E+00  8.421488E+00  7.747772E+00  7.173883E+00  6.679155E+00  6.248262E+00  5.869599E+00  5.534210E+00  5.235079E+00  4.966627E+00
 4.724365E+00  4.504639E+00  4.304444E+00  4.121286E+00  3.953079E+00  3.798065E+00  3.654750E+00  3.521858E+00  3.398291E+00  3.283101E+00
 3.175465E+00  3.074663E+00  2.980063E+00  2.891112E+00  2.807317E+00  2.728242E+00  2.653501E+00  2.582745E+00  2.515666E+00  2.451982E+00
 2.391443E+00  2.333822E+00  2.278913E+00  2.226528E+00  2.176497E+00  2.128665E+00  2.082891E+00  2.039044E+00  1.997005E+00  1.956665E+00
 1.917922E+00  1.880684E+00  1.844864E+00  1.810384E+00  1.777169E+00  1.745150E+00  1.714265E+00  1.684455E+00  1.655663E+00  1.627840E+00
 1.600936E+00  1.574907E+00  1.549711E+00  1.525308E+00  1.501662E+00  1.478739E+00  1.456504E+00  1.434929E+00  1.413983E+00  1.393640E+00
 1.373874E+00  1.354662E+00  1.335979E+00  1.317804E+00  1.300118E+00  1.282900E+00  1.266132E+00  1.249797E+00  1.233878E+00  1.218359E+00
 1.203226E+00  1.188465E+00  1.174061E+00  1.160002E+00  1.146276E+00  1.132871E+00  1.119776E+00  1.106981E+00  1.094474E+00  1.082247E+00
 1.070291E+00  1.058595E+00  1.047153E+00  1.035955E+00  1.024994E+00  1.014262E+00  1.003753E+00  9.934585E-01  9.833724E-01  9.734888E-01
 1.649943E+02  9.533885E+01  4.518983E+01  2.920005E+01  2.190668E+01  1.770919E+01  1.492680E+01  1.292081E+01  1.139644E+01  1.019567E+01
 9.224362E+00  8.422188E+00  7.748419E+00  7.174482E+00  6.679712E+00  6.248784E+00  5.870088E+00  5.534672E+00  5.235515E+00  4.967041E+00
 4.724759E+00  4.505015E+00  4.304802E+00  4.121629E+00  3.953409E+00  3.798382E+00  3.655055E+00  3.522151E+00  3.398574E+00  3.283375E+00
 3.175729E+00  3.074919E+00  2.980312E+00  2.891353E+00  2.807550E+00  2.728470E+00  2.653722E+00  2.582961E+00  2.515875E+00  2.452186E+00
 2.391643E+00  2.334017E+00  2.279103E+00  2.226713E+00  2.176678E+00  2.128843E+00  2.083065E+00  2.039214E+00  1.997172E+00  1.956828E+00
 1.918082E+00  1.880841E+00  1.845018E+00  1.810535E+00  1.777317E+00  1.745296E+00  1.714408E+00  1.684595E+00  1.655801E+00  1.627975E+00
 1.601069E+00  1.575038E+00  1.549840E+00  1.525435E+00  1.501787E+00  1.478862E+00  1.456626E+00  1.435048E+00  1.414101E+00  1.393756E+00
 1.373989E+00  1.354774E+00  1.336090E+00  1.317914E+00  1.300226E+00  1.283006E+00  1.266237E+00  1.249901E+00  1.233980E+00  1.218461E+00
 1.203326E+00  1.188564E+00  1.174159E+00  1.160099E+00  1.146372E+00  1.132966E+00  1.119870E+00  1.107073E+00  1.094566E+00  1.082338E+00
 1.070380E+00  1.058683E+00  1.047240E+00  1.036041E+00  1.025078E+00  1.014345E+00  1.003834E+00  9.935359E-01  9.834450E-01  9.735562E-01
 1.517385E+02  8.914844E+01  4.378062E+01  2.887513E+01  2.182788E+01  1.768995E+01  1.492259E+01  1.292044E+01  1.139700E+01  1.019641E+01
 9.225104E+00  8.422884E+00  7.749064E+00  7.175081E+00  6.680270E+00  6.249305E+00  5.870578E+00  5.535133E+00  5.235952E+00  4.967455E+00
 4.725153E+00  4.505390E+00  4.305161E+00  4.121973E+00  3.953738E+00  3.798698E+00  3.655359E+00  3.522444E+00  3.398857E+00  3.283648E+00
 3.175994E+00  3.075175E+00  2.980560E+00  2.891593E+00  2.807784E+00  2.728697E+00  2.653943E+00  2.583176E+00  2.516085E+00  2.452390E+00
 2.391842E+00  2.334211E+00  2.279292E+00  2.226899E+00  2.176859E+00  2.129020E+00  2.083238E+00  2.039384E+00  1.997338E+00  1.956991E+00
 1.918242E+00  1.880997E+00  1.845172E+00  1.810685E+00  1.777465E+00  1.745441E+00  1.714551E+00  1.684735E+00  1.655939E+00  1.628111E+00
 1.601202E+00  1.575169E+00  1.549969E+00  1.525562E+00  1.501912E+00  1.478985E+00  1.456747E+00  1.435168E+00  1.414218E+00  1.393872E+00
 1.374103E+00  1.354887E+00  1.336201E+00  1.318024E+00  1.300334E+00  1.283113E+00  1.266343E+00  1.250005E+00  1.234083E+00  1.218562E+00
 1.203427E+00  1.188662E+00  1.174256E+00  1.160195E+00  1.146467E+00  1.133060E+00  1.119963E+00  1.107165E+00  1.094657E+00  1.082428E+00
 1.070469E+00  1.058771E+00  1.047327E+00  1.036127E+00  1.025163E+00  1.014428E+00  1.003914E+00  9.936133E-01  9.835176E-01  9.736232E-01
 1.296415E+02  7.929738E+01  4.181540E+01  2.842977E+01  2.171921E+01  1.766296E+01  1.491632E+01  1.291950E+01  1.139741E+01  1.019712E+01
 9.225835E+00  8.423577E+00  7.749708E+00  7.175678E+00  6.680827E+00  6.249826E+00  5.871067E+00  5.535594E+00  5.236388E+00  4.967869E+00
 4.725547E+00  4.505765E+00  4.305520E+00  4.122316E+00  3.954067E+00  3.799014E+00  3.655663E+00  3.522738E+00  3.399140E+00  3.283922E+00
 3.176258E+00  3.075431E+00  2.980808E+00  2.891834E+00  2.808018E+00  2.728924E+00  2.654164E+00  2.583391E+00  2.516294E+00  2.452595E+00
 2.392041E+00  2.334405E+00  2.279482E+00  2.227084E+00  2.177041E+00  2.129197E+00  2.083411E+00  2.039553E+00  1.997504E+00  1.957154E+00
 1.918401E+00  1.881154E+00  1.845325E+00  1.810836E+00  1.777612E+00  1.745586E+00  1.714694E+00  1.684875E+00  1.656077E+00  1.628246E+00
 1.601336E+00  1.575300E+00  1.550098E+00  1.525689E+00  1.502037E+00  1.479108E+00  1.456868E+00  1.435287E+00  1.414336E+00  1.393988E+00
 1.374218E+00  1.355000E+00  1.336312E+00  1.318133E+00  1.300442E+00  1.283220E+00  1.266448E+00  1.250109E+00  1.234186E+00  1.218663E+00
 1.203527E+00  1.188761E+00  1.174354E+00  1.160292E+00  1.146562E+00  1.133154E+00  1.120056E+00  1.107257E+00  1.094748E+00  1.082518E+00
 1.070558E+00  1.058859E+00  1.047414E+00  1.036212E+00  1.025248E+00  1.014511E+00  1.003995E+00  9.936909E-01  9.835902E-01  9.736895E-01
 9.600027E+01  6.517511E+01  3.952148E+01  2.791302E+01  2.159202E+01  1.763106E+01  1.490874E+01  1.291822E+01  1.139772E+01  1.019780E+01
 9.226558E+00  8.424267E+00  7.750351E+00  7.176276E+00  6.681383E+00  6.250347E+00  5.871556E+00  5.536055E+00  5.236824E+00  4.968283E+00