# vtk DataFile Version 2.0
PFLOTRAN output
ASCII
DATASET UNSTRUCTURED_GRID
POINTS          462 float
 0.000000E+00  0.000000E+00  0.000000E+00
 1.000000E+01  0.000000E+00  0.000000E+00
 2.000000E+01  0.000000E+00  0.000000E+00
 3.000000E+01  0.000000E+00  0.000000E+00
 4.000000E+01  0.000000E+00  0.000000E+00
 5.000000E+01  0.000000E+00  0.000000E+00
 6.000000E+01  0.000000E+00  0.000000E+00
 7.000000E+01  0.000000E+00  0.000000E+00
 8.000000E+01  0.000000E+00  0.000000E+00
 9.000000E+01  0.000000E+00  0.000000E+00
 1.000000E+02  0.000000E+00  0.000000E+00
 0.000000E+00  1.000000E+00  0.000000E+00
 1.000000E+01  1.000000E+00  0.000000E+00
 2.000000E+01  1.000000E+00  0.000000E+00
 3.000000E+01  1.000000E+00  0.000000E+00
 4.000000E+01  1.000000E+00  0.000000E+00
 5.000000E+01  1.000000E+00  0.000000E+00
 6.000000E+01  1.000000E+00  0.000000E+00
 7.000000E+01  1.000000E+00  0.000000E+00
 8.000000E+01  1.000000E+00  0.000000E+00
 9.000000E+01  1.000000E+00  0.000000E+00
 1.000000E+02  1.000000E+00  0.000000E+00
 0.000000E+00  0.000000E+00  5.000000E+00
 1.000000E+01  0.000000E+00  5.000000E+00
 2.000000E+01  0.000000E+00  5.000000E+00
 3.000000E+01  0.000000E+00  5.000000E+00
 4.000000E+01  0.000000E+00  5.000000E+00
 5.000000E+01  0.000000E+00  5.000000E+00
 6.000000E+01  0.000000E+00  5.000000E+00
 7.000000E+01  0.000000E+00  5.000000E+00
 8.000000E+01  0.000000E+00  5.000000E+00
 9.000000E+01  0.000000E+00  5.000000E+00
 1.000000E+02  0.000000E+00  5.000000E+00
 0.000000E+00  1.000000E+00  5.000000E+00
 1.000000E+01  1.000000E+00  5.000000E+00
 2.000000E+01  1.000000E+00  5.000000E+00
 3.000000E+01  1.000000E+00  5.000000E+00
 4.000000E+01  1.000000E+00  5.000000E+00
 5.000000E+01  1.000000E+00  5.000000E+00
 6.000000E+01  1.000000E+00  5.000000E+00
 7.000000E+01  1.000000E+00  5.000000E+00
 8.000000E+01  1.000000E+00  5.000000E+00
 9.000000E+01  1.000000E+00  5.000000E+00
 1.000000E+02  1.000000E+00  5.000000E+00
 0.000000E+00  0.000000E+00  1.000000E+01
 1.000000E+01  0.000000E+00  1.000000E+01
 2.000000E+01  0.000000E+00  1.000000E+01
 3.000000E+01  0.000000E+00  1.000000E+01
 4.000000E+01  0.000000E+00  1.000000E+01
 5.000000E+01  0.000000E+00  1.000000E+01
 6.000000E+01  0.000000E+00  1.000000E+01
 7.000000E+01  0.000000E+00  1.000000E+01
 8.000000E+01  0.000000E+00  1.000000E+01
 9.000000E+01  0.000000E+00  1.000000E+01
 1.000000E+02  0.000000E+00  1.000000E+01
 0.000000E+00  1.000000E+00  1.000000E+01
 1.000000E+01  1.000000E+00  1.000000E+01
 2.000000E+01  1.000000E+00  1.000000E+01
 3.000000E+01  1.000000E+00  1.000000E+01
 4.000000E+01  1.000000E+00  1.000000E+01
 5.000000E+01  1.000000E+00  1.000000E+01
 6.000000E+01  1.000000E+00  1.000000E+01
 7.000000E+01  1.000000E+00  1.000000E+01
 8.000000E+01  1.000000E+00  1.000000E+01
 9.000000E+01  1.000000E+00  1.000000E+01
 1.000000E+02  1.000000E+00  1.000000E+01
 0.000000E+00  0.000000E+00  1.500000E+01
 1.000000E+01  0.000000E+00  1.500000E+01
 2.000000E+01  0.000000E+00  1.500000E+01
 3.000000E+01  0.000000E+00  1.500000E+01
 4.000000E+01  0.000000E+00  1.500000E+01
 5.000000E+01  0.000000E+00  1.500000E+01
 6.000000E+01  0.000000E+00  1.500000E+01
 7.000000E+01  0.000000E+00  1.500000E+01
 8.000000E+01  0.000000E+00  1.500000E+01
 9.000000E+01  0.000000E+00  1.500000E+01
 1.000000E+02  0.000000E+00  1.500000E+01
 0.000000E+00  1.000000E+00  1.500000E+01
 1.000000E+01  1.000000E+00  1.500000E+01
 2.000000E+01  1.000000E+00  1.500000E+01
 3.000000E+01  1.000000E+00  1.500000E+01
 4.000000E+01  1.000000E+00  1.500000E+01
 5.000000E+01  1.000000E+00  1.500000E+01
 6.000000E+01  1.000000E+00  1.500000E+01
 7.000000E+01  1.000000E+00  1.500000E+01
 8.000000E+01  1.000000E+00  1.500000E+01
 9.000000E+01  1.000000E+00  1.500000E+01
 1.000000E+02  1.000000E+00  1.500000E+01
 0.000000E+00  0.000000E+00  2.000000E+01
 1.000000E+01  0.000000E+00  2.000000E+01
 2.000000E+01  0.000000E+00  2.000000E+01
 3.000000E+01  0.000000E+00  2.000000E+01
 4.000000E+01  0.000000E+00  2.000000E+01
 5.000000E+01  0.000000E+00  2.000000E+01
 6.000000E+01  0.000000E+00  2.000000E+01
 7.000000E+01  0.000000E+00  2.000000E+01
 8.000000E+01  0.000000E+00  2.000000E+01
 9.000000E+01  0.000000E+00  2.000000E+01
 1.000000E+02  0.000000E+00  2.000000E+01
 0.000000E+00  1.000000E+00  2.000000E+01
 1.000000E+01  1.000000E+00  2.000000E+01
 2.000000E+01  1.000000E+00  2.000000E+01
 3.000000E+01  1.000000E+00  2.000000E+01
 4.000000E+01  1.000000E+00  2.000000E+01
 5.000000E+01  1.000000E+00  2.000000E+01
 6.000000E+01  1.000000E+00  2.000000E+01
 7.000000E+01  1.000000E+00  2.000000E+01
 8.000000E+01  1.000000E+00  2.000000E+01
 9.000000E+01  1.000000E+00  2.000000E+01
 1.000000E+02  1.000000E+00  2.000000E+01
 0.000000E+00  0.000000E+00  2.500000E+01
 1.000000E+01  0.000000E+00  2.500000E+01
 2.000000E+01  0.000000E+00  2.500000E+01
 3.000000E+01  0.000000E+00  2.500000E+01
 4.000000E+01  0.000000E+00  2.500000E+01
 5.000000E+01  0.000000E+00  2.500000E+01
 6.000000E+01  0.000000E+00  2.500000E+01
 7.000000E+01  0.000000E+00  2.500000E+01
 8.000000E+01  0.000000E+00  2.500000E+01
 9.000000E+01  0.000000E+00  2.500000E+01
 1.000000E+02  0.000000E+00  2.500000E+01
 0.000000E+00  1.000000E+00  2.500000E+01
 1.000000E+01  1.000000E+00  2.500000E+01
 2.000000E+01  1.000000E+00  2.500000E+01
 3.000000E+01  1.000000E+00  2.500000E+01
 4.000000E+01  1.000000E+00  2.500000E+01
 5.000000E+01  1.000000E+00  2.500000E+01
 6.000000E+01  1.000000E+00  2.500000E+01
 7.000000E+01  1.000000E+00  2.500000E+01
 8.000000E+01  1.000000E+00  2.500000E+01
 9.000000E+01  1.000000E+00  2.500000E+01
 1.000000E+02  1.000000E+00  2.500000E+01
 0.000000E+00  0.000000E+00  3.000000E+01
 1.000000E+01  0.000000E+00  3.000000E+01
 2.000000E+01  0.000000E+00  3.000000E+01
 3.000000E+01  0.000000E+00  3.000000E+01
 4.000000E+01  0.000000E+00  3.000000E+01
 5.000000E+01  0.000000E+00  3.000000E+01
 6.000000E+01  0.000000E+00  3.000000E+01
 7.000000E+01  0.000000E+00  3.000000E+01
 8.000000E+01  0.000000E+00  3.000000E+01
 9.000000E+01  0.000000E+00  3.000000E+01
 1.000000E+02  0.000000E+00  3.000000E+01
 0.000000E+00  1.000000E+00  3.000000E+01
 1.000000E+01  1.000000E+00  3.000000E+01
 2.000000E+01  1.000000E+00  3.000000E+01
 3.000000E+01  1.000000E+00  3.000000E+01
 4.000000E+01  1.000000E+00  3.000000E+01
 5.000000E+01  1.000000E+00  3.000000E+01
 6.000000E+01  1.000000E+00  3.000000E+01
 7.000000E+01  1.000000E+00  3.000000E+01
 8.000000E+01  1.000000E+00  3.000000E+01
 9.000000E+01  1.000000E+00  3.000000E+01
 1.000000E+02  1.000000E+00  3.000000E+01
 0.000000E+00  0.000000E+00  3.500000E+01
 1.000000E+01  0.000000E+00  3.500000E+01
 2.000000E+01  0.000000E+00  3.500000E+01
 3.000000E+01  0.000000E+00  3.500000E+01
 4.000000E+01  0.000000E+00  3.500000E+01
 5.000000E+01  0.000000E+00  3.500000E+01
 6.000000E+01  0.000000E+00  3.500000E+01
 7.000000E+01  0.000000E+00  3.500000E+01
 8.000000E+01  0.000000E+00  3.500000E+01
 9.000000E+01  0.000000E+00  3.500000E+01
 1.000000E+02  0.000000E+00  3.500000E+01
 0.000000E+00  1.000000E+00  3.500000E+01
 1.000000E+01  1.000000E+00  3.500000E+01
 2.000000E+01  1.000000E+00  3.500000E+01
 3.000000E+01  1.000000E+00  3.500000E+01
 4.000000E+01  1.000000E+00  3.500000E+01
 5.000000E+01  1.000000E+00  3.500000E+01
 6.000000E+01  1.000000E+00  3.500000E+01
 7.000000E+01  1.000000E+00  3.500000E+01
 8.000000E+01  1.000000E+00  3.500000E+01
 9.000000E+01  1.000000E+00  3.500000E+01
 1.000000E+02  1.000000E+00  3.500000E+01
 0.000000E+00  0.000000E+00  4.000000E+01
 1.000000E+01  0.000000E+00  4.000000E+01
 2.000000E+01  0.000000E+00  4.000000E+01
 3.000000E+01  0.000000E+00  4.000000E+01
 4.000000E+01  0.000000E+00  4.000000E+01
 5.000000E+01  0.000000E+00  4.000000E+01
 6.000000E+01  0.000000E+00  4.000000E+01
 7.000000E+01  0.000000E+00  4.000000E+01
 8.000000E+01  0.000000E+00  4.000000E+01
 9.000000E+01  0.000000E+00  4.000000E+01
 1.000000E+02  0.000000E+00  4.000000E+01
 0.000000E+00  1.000000E+00  4.000000E+01
 1.000000E+01  1.000000E+00  4.000000E+01
 2.000000E+01  1.000000E+00  4.000000E+01
 3.000000E+01  1.000000E+00  4.000000E+01
 4.000000E+01  1.000000E+00  4.000000E+01
 5.000000E+01  1.000000E+00  4.000000E+01
 6.000000E+01  1.000000E+00  4.000000E+01
 7.000000E+01  1.000000E+00  4.000000E+01
 8.000000E+01  1.000000E+00  4.000000E+01
 9.000000E+01  1.000000E+00  4.000000E+01
 1.000000E+02  1.000000E+00  4.000000E+01
 0.000000E+00  0.000000E+00  4.500000E+01
 1.000000E+01  0.000000E+00  4.500000E+01
 2.000000E+01  0.000000E+00  4.500000E+01
 3.000000E+01  0.000000E+00  4.500000E+01
 4.000000E+01  0.000000E+00  4.500000E+01
 5.000000E+01  0.000000E+00  4.500000E+01
 6.000000E+01  0.000000E+00  4.500000E+01
 7.000000E+01  0.000000E+00  4.500000E+01
 8.000000E+01  0.000000E+00  4.500000E+01
 9.000000E+01  0.000000E+00  4.500000E+01
 1.000000E+02  0.000000E+00  4.500000E+01
 0.000000E+00  1.000000E+00  4.500000E+01
 1.000000E+01  1.000000E+00  4.500000E+01
 2.000000E+01  1.000000E+00  4.500000E+01
 3.000000E+01  1.000000E+00  4.500000E+01
 4.000000E+01  1.000000E+00  4.500000E+01
 5.000000E+01  1.000000E+00  4.500000E+01
 6.000000E+01  1.000000E+00  4.500000E+01
 7.000000E+01  1.000000E+00  4.500000E+01
 8.000000E+01  1.000000E+00  4.500000E+01
 9.000000E+01  1.000000E+00  4.500000E+01
 1.000000E+02  1.000000E+00  4.500000E+01
 0.000000E+00  0.000000E+00  5.000000E+01
 1.000000E+01  0.000000E+00  5.000000E+01
 2.000000E+01  0.000000E+00  5.000000E+01
 3.000000E+01  0.000000E+00  5.000000E+01
 4.000000E+01  0.000000E+00  5.000000E+01
 5.000000E+01  0.000000E+00  5.000000E+01
 6.000000E+01  0.000000E+00  5.000000E+01
 7.000000E+01  0.000000E+00  5.000000E+01
 8.000000E+01  0.000000E+00  5.000000E+01
 9.000000E+01  0.000000E+00  5.000000E+01
 1.000000E+02  0.000000E+00  5.000000E+01
 0.000000E+00  1.000000E+00  5.000000E+01
 1.000000E+01  1.000000E+00  5.000000E+01
 2.000000E+01  1.000000E+00  5.000000E+01
 3.000000E+01  1.000000E+00  5.000000E+01
[...]
CELL_DATA      200
SCALARS Porosity             float 1
LOOKUP_TABLE default
 4.377063E-01  4.377095E-01  4.377099E-01  4.377100E-01  4.377100E-01  4.377100E-01  4.377100E-01  4.377100E-01  4.377100E-01  4.377100E-01
 4.376767E-01  4.377047E-01  4.377093E-01  4.377099E-01  4.377099E-01  4.377099E-01  4.377100E-01  4.377100E-01  4.377100E-01  4.377100E-01
 4.375510E-01  4.376807E-01  4.377058E-01  4.377095E-01  4.377099E-01  4.377099E-01  4.377099E-01  4.377099E-01  4.377100E-01  4.377099E-01
 4.372110E-01  4.375994E-01  4.376924E-01  4.377078E-01  4.377097E-01  4.377099E-01  4.377099E-01  4.377099E-01  4.377099E-01  4.377099E-01
 4.366551E-01  4.374029E-01  4.376540E-01  4.377025E-01  4.377092E-01  4.377099E-01  4.377099E-01  4.377099E-01  4.377099E-01  4.377099E-01
 4.366420E-01  4.370801E-01  4.375732E-01  4.376902E-01  4.377078E-01  4.377097E-01  4.377099E-01  4.377099E-01  4.377099E-01  4.377099E-01
 4.390157E-01  4.368757E-01  4.374607E-01  4.376704E-01  4.377054E-01  4.377095E-01  4.377099E-01  4.377099E-01  4.377099E-01  4.377099E-01
 4.390166E-01  4.368162E-01  4.374037E-01  4.376571E-01  4.377035E-01  4.377093E-01  4.377099E-01  4.377099E-01  4.377099E-01  4.377099E-01
 4.390172E-01  4.367914E-01  4.373707E-01  4.376481E-01  4.377021E-01  4.377092E-01  4.377098E-01  4.377099E-01  4.377099E-01  4.377099E-01
 4.390173E-01  4.367814E-01  4.373553E-01  4.376434E-01  4.377014E-01  4.377091E-01  4.377098E-01  4.377099E-01  4.377099E-01  4.377099E-01
 4.390171E-01  4.367814E-01  4.373553E-01  4.376434E-01  4.377014E-01  4.377091E-01  4.377098E-01  4.377099E-01  4.377099E-01  4.377099E-01
 4.390164E-01  4.367912E-01  4.373707E-01  4.376481E-01  4.377021E-01  4.377092E-01  4.377099E-01  4.377099E-01  4.377099E-01  4.377099E-01
 4.390154E-01  4.368159E-01  4.374038E-01  4.376572E-01  4.377035E-01  4.377093E-01  4.377099E-01  4.377099E-01  4.377099E-01  4.377099E-01
 4.390141E-01  4.368754E-01  4.374608E-01  4.376705E-01  4.377054E-01  4.377095E-01  4.377099E-01  4.377099E-01  4.377099E-01  4.377099E-01
 4.366412E-01  4.370802E-01  4.375734E-01  4.376902E-01  4.377078E-01  4.377097E-01  4.377099E-01  4.377099E-01  4.377099E-01  4.377099E-01
 4.366552E-01  4.374032E-01  4.376541E-01  4.377026E-01  4.377092E-01  4.377099E-01  4.377099E-01  4.377099E-01  4.377099E-01  4.377099E-01
 4.372114E-01  4.375997E-01  4.376925E-01  4.377079E-01  4.377098E-01  4.377099E-01  4.377099E-01  4.377099E-01  4.377099E-01  4.377099E-01
 4.375514E-01  4.376809E-01  4.377059E-01  4.377095E-01  4.377099E-01  4.377099E-01  4.377099E-01  4.377099E-01  4.377100E-01  4.377100E-01
 4.376769E-01  4.377048E-01  4.377093E-01  4.377099E-01  4.377099E-01  4.377099E-01  4.377099E-01  4.377100E-01  4.377100E-01  4.377100E-01
 4.377064E-01  4.377095E-01  4.377099E-01  4.377100E-01  4.377100E-01  4.377100E-01  4.377100E-01  4.377100E-01  4.377100E-01  4.377100E-01


SCALARS Permeability         float 1
LOOKUP_TABLE default
 8.829620E-13  8.829778E-13  8.829801E-13  8.829804E-13  8.829804E-13  8.829804E-13  8.829804E-13  8.829803E-13  8.829803E-13  8.829803E-13
 8.828121E-13  8.829536E-13  8.829769E-13  8.829800E-13  8.829803E-13  8.829803E-13  8.829803E-13  8.829803E-13  8.829803E-13  8.829803E-13
 8.821773E-13  8.828323E-13  8.829594E-13  8.829780E-13  8.829800E-13  8.829802E-13  8.829802E-13  8.829803E-13  8.829803E-13  8.829803E-13
 8.804606E-13  8.824218E-13  8.828914E-13  8.829695E-13  8.829792E-13  8.829801E-13  8.829802E-13  8.829802E-13  8.829803E-13  8.829803E-13
 8.776579E-13  8.814290E-13  8.826973E-13  8.829428E-13  8.829764E-13  8.829798E-13  8.829801E-13  8.829802E-13  8.829802E-13  8.829802E-13
 8.775919E-13  8.797998E-13  8.822892E-13  8.828802E-13  8.829693E-13  8.829792E-13  8.829800E-13  8.829801E-13  8.829802E-13  8.829802E-13
 8.895954E-13  8.787694E-13  8.817209E-13  8.827803E-13  8.829572E-13  8.829781E-13  8.829799E-13  8.829801E-13  8.829802E-13  8.829802E-13
 8.895998E-13  8.784695E-13  8.814332E-13  8.827131E-13  8.829478E-13  8.829771E-13  8.829798E-13  8.829801E-13  8.829802E-13  8.829802E-13
 8.896029E-13  8.783447E-13  8.812665E-13  8.826675E-13  8.829407E-13  8.829763E-13  8.829798E-13  8.829800E-13  8.829801E-13  8.829802E-13
 8.896037E-13  8.782944E-13  8.811888E-13  8.826441E-13  8.829370E-13  8.829759E-13  8.829797E-13  8.829800E-13  8.829801E-13  8.829801E-13
 8.896024E-13  8.782940E-13  8.811888E-13  8.826441E-13  8.829370E-13  8.829759E-13  8.829797E-13  8.829800E-13  8.829801E-13  8.829802E-13
 8.895991E-13  8.783437E-13  8.812666E-13  8.826676E-13  8.829408E-13  8.829764E-13  8.829798E-13  8.829800E-13  8.829801E-13  8.829802E-13
 8.895937E-13  8.784681E-13  8.814334E-13  8.827134E-13  8.829479E-13  8.829771E-13  8.829798E-13  8.829801E-13  8.829802E-13  8.829802E-13
 8.895873E-13  8.787681E-13  8.817214E-13  8.827806E-13  8.829574E-13  8.829781E-13  8.829799E-13  8.829801E-13  8.829802E-13  8.829802E-13
 8.775878E-13  8.798004E-13  8.822900E-13  8.828807E-13  8.829695E-13  8.829793E-13  8.829800E-13  8.829801E-13  8.829802E-13  8.829802E-13
 8.776583E-13  8.814305E-13  8.826982E-13  8.829432E-13  8.829765E-13  8.829799E-13  8.829801E-13  8.829802E-13  8.829802E-13  8.829802E-13
 8.804626E-13  8.824233E-13  8.828922E-13  8.829698E-13  8.829793E-13  8.829801E-13  8.829801E-13  8.829802E-13  8.829803E-13  8.829803E-13
 8.821791E-13  8.828333E-13  8.829599E-13  8.829782E-13  8.829801E-13  8.829802E-13  8.829802E-13  8.829802E-13  8.829803E-13  8.829803E-13
 8.828131E-13  8.829542E-13  8.829772E-13  8.829800E-13  8.829802E-13  8.829802E-13  8.829802E-13  8.829803E-13  8.829803E-13  8.829803E-13
 8.829623E-13  8.829779E-13  8.829801E-13  8.829803E-13  8.829803E-13  8.829803E-13  8.829803E-13  8.829804E-13  8.829804E-13  8.829803E-13


SCALARS Liquid_Pressure      float 1
LOOKUP_TABLE default
 8.009835E+06  7.964906E+06  7.898097E+06  7.825765E+06  7.756118E+06  7.692270E+06  7.634860E+06  7.583504E+06  7.537497E+06  7.496113E+06
 7.987138E+06  7.934526E+06  7.861278E+06  7.785010E+06  7.713222E+06  7.648264E+06  7.590286E+06  7.538638E+06  7.492475E+06  7.450999E+06
 7.990769E+06  7.919798E+06  7.832692E+06  7.748425E+06  7.672420E+06  7.605309E+06  7.546238E+06  7.494031E+06  7.447570E+06  7.405917E+06
 8.030002E+06  7.922297E+06  7.811969E+06  7.715502E+06  7.633373E+06  7.563212E+06  7.502615E+06  7.449632E+06  7.402759E+06  7.360862E+06
 8.123466E+06  7.943704E+06  7.798137E+06  7.685377E+06  7.595568E+06  7.521698E+06  7.459274E+06  7.405368E+06  7.358010E+06  7.315824E+06
 8.307290E+06  7.983897E+06  7.789062E+06  7.656757E+06  7.558329E+06  7.480424E+06  7.416041E+06  7.361156E+06  7.313283E+06  7.270794E+06
 8.650583E+06  8.035463E+06  7.780812E+06  7.627928E+06  7.520863E+06  7.439005E+06  7.372729E+06  7.316903E+06  7.268538E+06  7.225760E+06
 8.823402E+06  8.069084E+06  7.767646E+06  7.596962E+06  7.482350E+06  7.397062E+06  7.329153E+06  7.272521E+06  7.223736E+06  7.180710E+06
 8.897348E+06  8.077022E+06  7.745574E+06  7.562208E+06  7.442069E+06  7.354261E+06  7.285155E+06  7.227933E+06  7.178842E+06  7.135636E+06
 8.905123E+06  8.058229E+06  7.712414E+06  7.522537E+06  7.399494E+06  7.310354E+06  7.240617E+06  7.183085E+06  7.133832E+06  7.090532E+06
 8.859904E+06  8.013054E+06  7.667254E+06  7.477386E+06  7.354348E+06  7.265211E+06  7.195477E+06  7.137946E+06  7.088693E+06  7.045393E+06
 8.761696E+06  7.941496E+06  7.610096E+06  7.426756E+06  7.306633E+06  7.218834E+06  7.149734E+06  7.092516E+06  7.043425E+06  7.000219E+06
 8.597343E+06  7.843218E+06  7.541854E+06  7.371209E+06  7.256623E+06  7.171351E+06  7.103452E+06  7.046825E+06  6.998041E+06  6.955014E+06
 8.334172E+06  7.719274E+06  7.464712E+06  7.311879E+06  7.204846E+06  7.123010E+06  7.056747E+06  7.000929E+06  6.952566E+06  6.909785E+06
 7.900641E+06  7.577408E+06  7.382663E+06  7.250415E+06  7.152025E+06  7.074146E+06  7.009780E+06  6.954904E+06  6.907033E+06  6.864540E+06
 7.626583E+06  7.446931E+06  7.301446E+06  7.188745E+06  7.098979E+06  7.025139E+06  6.962734E+06  6.908839E+06  6.861482E+06  6.819292E+06
 7.442876E+06  7.335248E+06  7.224994E+06  7.128585E+06  7.046501E+06  6.976373E+06  6.915797E+06  6.862824E+06  6.815953E+06  6.774051E+06
 7.313389E+06  7.242475E+06  7.155434E+06  7.071225E+06  6.995267E+06  6.928190E+06  6.869142E+06  6.816946E+06  6.770486E+06  6.728827E+06
 7.219491E+06  7.166926E+06  7.093738E+06  7.017528E+06  6.945789E+06  6.880867E+06  6.822912E+06  6.771275E+06  6.725112E+06  6.683630E+06
 7.151908E+06  7.107022E+06  7.040274E+06  6.968001E+06  6.898404E+06  6.834594E+06  6.777208E+06  6.725863E+06  6.679856E+06  6.638467E+06


SCALARS Temperature          float 1
LOOKUP_TABLE default
 1.500980E+02  1.501054E+02  1.501136E+02  1.501177E+02  1.501135E+02  1.501007E+02  1.500833E+02  1.500657E+02  1.500503E+02  1.500377E+02
 1.501017E+02  1.501115E+02  1.501233E+02  1.501333E+02  1.501359E+02  1.501260E+02  1.501050E+02  1.500801E+02  1.500578E+02  1.500408E+02
 1.501014E+02  1.501143E+02  1.501289E+02  1.501419E+02  1.501494E+02  1.501447E+02  1.501248E+02  1.500959E+02  1.500676E+02  1.500456E+02
 1.500965E+02  1.501149E+02  1.501333E+02  1.501489E+02  1.501597E+02  1.501596E+02  1.501426E+02  1.501120E+02  1.500787E+02  1.500517E+02
 1.500842E+02  1.501131E+02  1.501371E+02  1.501556E+02  1.501689E+02  1.501725E+02  1.501588E+02  1.501278E+02  1.500905E+02  1.500586E+02
 1.500591E+02  1.501096E+02  1.501412E+02  1.501630E+02  1.501783E+02  1.501846E+02  1.501738E+02  1.501430E+02  1.501025E+02  1.500659E+02
 1.500097E+02  1.501064E+02  1.501472E+02  1.501720E+02  1.501888E+02  1.501968E+02  1.501881E+02  1.501577E+02  1.501143E+02  1.500734E+02
 1.500032E+02  1.501139E+02  1.501579E+02  1.501833E+02  1.502003E+02  1.502090E+02  1.502017E+02  1.501712E+02  1.501253E+02  1.500804E+02
 1.500011E+02  1.501192E+02  1.501658E+02  1.501921E+02  1.502094E+02  1.502187E+02  1.502122E+02  1.501818E+02  1.501339E+02  1.500861E+02
 1.500010E+02  1.501228E+02  1.501714E+02  1.501986E+02  1.502162E+02  1.502259E+02  1.502198E+02  1.501892E+02  1.501399E+02  1.500899E+02
 1.500010E+02  1.501228E+02  1.501714E+02  1.501986E+02  1.502162E+02  1.502259E+02  1.502199E+02  1.501892E+02  1.501400E+02  1.500899E+02
 1.500025E+02  1.501224E+02  1.501705E+02  1.501979E+02  1.502158E+02  1.502254E+02  1.502188E+02  1.501875E+02  1.501381E+02  1.500886E+02
 1.500061E+02  1.501208E+02  1.501678E+02  1.501952E+02  1.502134E+02  1.502227E+02  1.502149E+02  1.501825E+02  1.501334E+02  1.500853E+02
 1.500148E+02  1.501179E+02  1.501632E+02  1.501908E+02  1.502091E+02  1.502178E+02  1.502081E+02  1.501744E+02  1.501260E+02  1.500803E+02
 1.500774E+02  1.501320E+02  1.501670E+02  1.501910E+02  1.502077E+02  1.502143E+02  1.502013E+02  1.501653E+02  1.501177E+02  1.500745E+02
 1.501157E+02  1.501477E+02  1.501741E+02  1.501943E+02  1.502086E+02  1.502115E+02  1.501938E+02  1.501550E+02  1.501083E+02  1.500683E+02
 1.501412E+02  1.501620E+02  1.501822E+02  1.501990E+02  1.502102E+02  1.502079E+02  1.501842E+02  1.501427E+02  1.500978E+02  1.500617E+02
 1.501594E+02  1.501742E+02  1.501900E+02  1.502038E+02  1.502105E+02  1.502009E+02  1.501705E+02  1.501275E+02  1.500862E+02  1.500549E+02
 1.501728E+02  1.501841E+02  1.501967E+02  1.502064E+02  1.502052E+02  1.501857E+02  1.501498E+02  1.501087E+02  1.500735E+02  1.500482E+02
 1.501821E+02  1.501898E+02  1.501966E+02  1.501957E+02  1.501811E+02  1.501528E+02  1.501180E+02  1.500856E+02  1.500603E+02  1.500421E+02


SCALARS pH                   float 1
LOOKUP_TABLE default
 6.145669E+00  6.145696E+00  6.145723E+00  6.145741E+00  6.145736E+00  6.145683E+00  6.145554E+00  6.145336E+00  6.145058E+00  6.144775E+00
 6.145647E+00  6.145677E+00  6.145707E+00  6.145736E+00  6.145753E+00  6.145740E+00  6.145667E+00  6.145503E+00  6.145248E+00  6.144944E+00
 6.145610E+00  6.145664E+00  6.145698E+00  6.145730E+00  6.145755E+00  6.145759E+00  6.145714E+00  6.145587E+00  6.145360E+00  6.145059E+00
 6.145295E+00  6.145640E+00  6.145691E+00  6.145726E+00  6.145756E+00  6.145769E+00  6.145742E+00  6.145641E+00  6.145439E+00  6.145147E+00
 6.141816E+00  6.145491E+00  6.145680E+00  6.145724E+00  6.145758E+00  6.145777E+00  6.145762E+00  6.145679E+00  6.145498E+00  6.145217E+00
 6.114351E+00  6.144208E+00  6.145637E+00  6.145725E+00  6.145762E+00  6.145786E+00  6.145779E+00  6.145709E+00  6.145543E+00  6.145272E+00
 5.975560E+00  6.136642E+00  6.145403E+00  6.145726E+00  6.145771E+00  6.145799E+00  6.145797E+00  6.145735E+00  6.145580E+00  6.145315E+00
 5.975544E+00  6.134784E+00  6.145309E+00  6.145739E+00  6.145787E+00  6.145815E+00  6.145816E+00  6.145759E+00  6.145611E+00  6.145350E+00
 5.975543E+00  6.133913E+00  6.145254E+00  6.145751E+00  6.145801E+00  6.145829E+00  6.145832E+00  6.145778E+00  6.145633E+00  6.145374E+00
 5.975545E+00  6.133562E+00  6.145230E+00  6.145759E+00  6.145811E+00  6.145839E+00  6.145843E+00  6.145790E+00  6.145646E+00  6.145387E+00
 5.975541E+00  6.133557E+00  6.145227E+00  6.145756E+00  6.145809E+00  6.145838E+00  6.145842E+00  6.145789E+00  6.145645E+00  6.145387E+00
 5.975538E+00  6.133905E+00  6.145249E+00  6.145750E+00  6.145802E+00  6.145831E+00  6.145834E+00  6.145779E+00  6.145632E+00  6.145372E+00
 5.975540E+00  6.134774E+00  6.145304E+00  6.145740E+00  6.145791E+00  6.145821E+00  6.145822E+00  6.145762E+00  6.145610E+00  6.145346E+00
 5.975560E+00  6.136632E+00  6.145401E+00  6.145730E+00  6.145780E+00  6.145809E+00  6.145806E+00  6.145740E+00  6.145580E+00  6.145310E+00
 6.114360E+00  6.144209E+00  6.145644E+00  6.145737E+00  6.145778E+00  6.145803E+00  6.145793E+00  6.145716E+00  6.145543E+00  6.145266E+00
 6.141829E+00  6.145505E+00  6.145700E+00  6.145748E+00  6.145784E+00  6.145803E+00  6.145782E+00  6.145689E+00  6.145498E+00  6.145210E+00
 6.145318E+00  6.145668E+00  6.145724E+00  6.145762E+00  6.145793E+00  6.145803E+00  6.145766E+00  6.145651E+00  6.145438E+00  6.145139E+00
 6.145646E+00  6.145706E+00  6.145744E+00  6.145778E+00  6.145802E+00  6.145798E+00  6.145738E+00  6.145594E+00  6.145356E+00  6.145049E+00
 6.145696E+00  6.145731E+00  6.145764E+00  6.145793E+00  6.145803E+00  6.145776E+00  6.145683E+00  6.145502E+00  6.145237E+00  6.144932E+00
 6.145728E+00  6.145758E+00  6.145783E+00  6.145793E+00  6.145772E+00  6.145699E+00  6.145550E+00  6.145321E+00  6.145040E+00  6.144761E+00


SCALARS Total_H+             float 1
LOOKUP_TABLE default
-3.046809E-03 -3.045619E-03 -3.044244E-03 -3.042854E-03 -3.041665E-03 -3.040890E-03 -3.040723E-03 -3.041277E-03 -3.042438E-03 -3.043895E-03
-3.048033E-03 -3.046899E-03 -3.045521E-03 -3.043985E-03 -3.042505E-03 -3.041354E-03 -3.040765E-03 -3.040902E-03 -3.041775E-03 -3.043185E-03
-3.048794E-03 -3.047588E-03 -3.046211E-03 -3.044660E-03 -3.043056E-03 -3.041686E-03 -3.040849E-03 -3.040737E-03 -3.041401E-03 -3.042718E-03
-3.048399E-03 -3.048149E-03 -3.046672E-03 -3.045104E-03 -3.043446E-03 -3.041930E-03 -3.040904E-03 -3.040612E-03 -3.041123E-03 -3.042355E-03
-3.030494E-03 -3.048209E-03 -3.047018E-03 -3.045385E-03 -3.043693E-03 -3.042080E-03 -3.040909E-03 -3.040479E-03 -3.040881E-03 -3.042054E-03
-2.877761E-03 -3.042025E-03 -3.047141E-03 -3.045519E-03 -3.043793E-03 -3.042118E-03 -3.040840E-03 -3.040310E-03 -3.040645E-03 -3.041789E-03
-2.202119E-03 -2.999597E-03 -3.046040E-03 -3.045466E-03 -3.043728E-03 -3.042022E-03 -3.040675E-03 -3.040082E-03 -3.040389E-03 -3.041540E-03
-2.202034E-03 -2.988795E-03 -3.045205E-03 -3.045197E-03 -3.043496E-03 -3.041798E-03 -3.040420E-03 -3.039800E-03 -3.040114E-03 -3.041302E-03
-2.201957E-03 -2.983611E-03 -3.044615E-03 -3.044953E-03 -3.043276E-03 -3.041585E-03 -3.040190E-03 -3.039557E-03 -3.039886E-03 -3.041114E-03
-2.201932E-03 -2.981476E-03 -3.044282E-03 -3.044767E-03 -3.043094E-03 -3.041404E-03 -3.040003E-03 -3.039372E-03 -3.039724E-03 -3.040992E-03
-2.201975E-03 -2.981510E-03 -3.044306E-03 -3.044784E-03 -3.043106E-03 -3.041412E-03 -3.040008E-03 -3.039375E-03 -3.039726E-03 -3.040992E-03
-2.202067E-03 -2.983616E-03 -3.044536E-03 -3.044821E-03 -3.043111E-03 -3.041404E-03 -3.040012E-03 -3.039408E-03 -3.039786E-03 -3.041065E-03
-2.202205E-03 -2.988751E-03 -3.045003E-03 -3.044900E-03 -3.043142E-03 -3.041417E-03 -3.040053E-03 -3.039499E-03 -3.039916E-03 -3.041206E-03
-2.202332E-03 -2.999453E-03 -3.045672E-03 -3.044972E-03 -3.043160E-03 -3.041425E-03 -3.040112E-03 -3.039632E-03 -3.040100E-03 -3.041403E-03
-2.877578E-03 -3.041519E-03 -3.046463E-03 -3.044733E-03 -3.042944E-03 -3.041257E-03 -3.040054E-03 -3.039704E-03 -3.040268E-03 -3.041616E-03
-3.029784E-03 -3.047288E-03 -3.045969E-03 -3.044252E-03 -3.042517E-03 -3.040926E-03 -3.039896E-03 -3.039733E-03 -3.040439E-03 -3.041860E-03
-3.047198E-03 -3.046801E-03 -3.045227E-03 -3.043599E-03 -3.041924E-03 -3.040488E-03 -3.039701E-03 -3.039777E-03 -3.040658E-03 -3.042164E-03
-3.047129E-03 -3.045812E-03 -3.044364E-03 -3.042777E-03 -3.041205E-03 -3.040015E-03 -3.039548E-03 -3.039904E-03 -3.040977E-03 -3.042560E-03
-3.045920E-03 -3.044704E-03 -3.043285E-03 -3.041762E-03 -3.040422E-03 -3.039617E-03 -3.039542E-03 -3.040203E-03 -3.041465E-03 -3.043092E-03
-3.044294E-03 -3.043077E-03 -3.041753E-03 -3.040544E-03 -3.039727E-03 -3.039488E-03 -3.039889E-03 -3.040890E-03 -3.042314E-03 -3.043886E-03


SCALARS Total_SiO2(aq)       float 1
LOOKUP_TABLE default
 1.040373E-02  1.040160E-02  1.040188E-02  1.040219E-02  1.040185E-02  1.040078E-02  1.039929E-02  1.039776E-02  1.039643E-02  1.039534E-02
 1.043001E-02  1.040634E-02  1.040325E-02  1.040358E-02  1.040377E-02  1.040295E-02  1.040117E-02  1.039903E-02  1.039710E-02  1.039563E-02
 1.053941E-02  1.042761E-02  1.040678E-02  1.040465E-02  1.040494E-02  1.040455E-02  1.040288E-02  1.040040E-02  1.039795E-02  1.039606E-02
 1.084010E-02  1.049845E-02  1.041895E-02  1.040672E-02  1.040596E-02  1.040583E-02  1.040440E-02  1.040179E-02  1.039892E-02  1.039659E-02
 1.142220E-02  1.067158E-02  1.045279E-02  1.041193E-02  1.040723E-02  1.040696E-02  1.040578E-02  1.040315E-02  1.039995E-02  1.039720E-02
 1.224028E-02  1.098748E-02  1.052403E-02  1.042338E-02  1.040926E-02  1.040810E-02  1.040707E-02  1.040447E-02  1.040099E-02  1.039785E-02
 1.307678E-02  1.139994E-02  1.062861E-02  1.044145E-02  1.041225E-02  1.040934E-02  1.040831E-02  1.040573E-02  1.040201E-02  1.039850E-02
 1.307563E-02  1.150888E-02  1.068189E-02  1.045402E-02  1.041486E-02  1.041055E-02  1.040949E-02  1.040689E-02  1.040296E-02  1.039912E-02
 1.307496E-02  1.155749E-02  1.071306E-02  1.046266E-02  1.041685E-02  1.041150E-02  1.041040E-02  1.040780E-02  1.040371E-02  1.039962E-02
 1.307480E-02  1.157723E-02  1.072776E-02  1.046725E-02  1.041809E-02  1.041219E-02  1.041106E-02  1.040844E-02  1.040423E-02  1.039995E-02
 1.307505E-02  1.157730E-02  1.072776E-02  1.046724E-02  1.041808E-02  1.041218E-02  1.041106E-02  1.040844E-02  1.040424E-02  1.039995E-02
 1.307575E-02  1.155791E-02  1.071344E-02  1.046312E-02  1.041738E-02  1.041207E-02  1.041096E-02  1.040829E-02  1.040407E-02  1.039983E-02
 1.307695E-02  1.150966E-02  1.068268E-02  1.045497E-02  1.041595E-02  1.041171E-02  1.041062E-02  1.040787E-02  1.040367E-02  1.039954E-02
 1.307856E-02  1.140108E-02  1.062987E-02  1.044298E-02  1.041395E-02  1.041112E-02  1.041003E-02  1.040717E-02  1.040303E-02  1.039910E-02
 1.224216E-02  1.098923E-02  1.052605E-02  1.042568E-02  1.041174E-02  1.041063E-02  1.040943E-02  1.040639E-02  1.040231E-02  1.039860E-02
 1.142463E-02  1.067421E-02  1.045576E-02  1.041515E-02  1.041059E-02  1.041030E-02  1.040880E-02  1.040551E-02  1.040150E-02  1.039806E-02
 1.084348E-02  1.050215E-02  1.042296E-02  1.041093E-02  1.041025E-02  1.040997E-02  1.040799E-02  1.040446E-02  1.040059E-02  1.039747E-02
 1.054398E-02  1.043248E-02  1.041189E-02  1.040989E-02  1.041016E-02  1.040938E-02  1.040682E-02  1.040315E-02  1.039957E-02  1.039687E-02
 1.043586E-02  1.041240E-02  1.040947E-02  1.040981E-02  1.040972E-02  1.040811E-02  1.040506E-02  1.040152E-02  1.039846E-02  1.039627E-02