# vtk DataFile Version 2.0
PFLOTRAN output
ASCII
DATASET UNSTRUCTURED_GRID
POINTS          462 float
 0.000000E+00  0.000000E+00  0.000000E+00
 1.000000E+01  0.000000E+00  0.000000E+00
 2.000000E+01  0.000000E+00  0.000000E+00
 3.000000E+01  0.000000E+00  0.000000E+00
 4.000000E+01  0.000000E+00  0.000000E+00
 5.000000E+01  0.000000E+00  0.000000E+00
 6.000000E+01  0.000000E+00  0.000000E+00
 7.000000E+01  0.000000E+00  0.000000E+00
 8.000000E+01  0.000000E+00  0.000000E+00
 9.000000E+01  0.000000E+00  0.000000E+00
 1.000000E+02  0.000000E+00  0.000000E+00
 0.000000E+00  1.000000E+00  0.000000E+00
 1.000000E+01  1.000000E+00  0.000000E+00
 2.000000E+01  1.000000E+00  0.000000E+00
 3.000000E+01  1.000000E+00  0.000000E+00
 4.000000E+01  1.000000E+00  0.000000E+00
 5.000000E+01  1.000000E+00  0.000000E+00
 6.000000E+01  1.000000E+00  0.000000E+00
 7.000000E+01  1.000000E+00  0.000000E+00
 8.000000E+01  1.000000E+00  0.000000E+00
 9.000000E+01  1.000000E+00  0.000000E+00
 1.000000E+02  1.000000E+00  0.000000E+00
 0.000000E+00  0.000000E+00  5.000000E+00
 1.000000E+01  0.000000E+00  5.000000E+00
 2.000000E+01  0.000000E+00  5.000000E+00
 3.000000E+01  0.000000E+00  5.000000E+00
 4.000000E+01  0.000000E+00  5.000000E+00
 5.000000E+01  0.000000E+00  5.000000E+00
 6.000000E+01  0.000000E+00  5.000000E+00
 7.000000E+01  0.000000E+00  5.000000E+00
 8.000000E+01  0.000000E+00  5.000000E+00
 9.000000E+01  0.000000E+00  5.000000E+00
 1.000000E+02  0.000000E+00  5.000000E+00
 0.000000E+00  1.000000E+00  5.000000E+00
 1.000000E+01  1.000000E+00  5.000000E+00
 2.000000E+01  1.000000E+00  5.000000E+00
 3.000000E+01  1.000000E+00  5.000000E+00
 4.000000E+01  1.000000E+00  5.000000E+00
 5.000000E+01  1.000000E+00  5.000000E+00
 6.000000E+01  1.000000E+00  5.000000E+00
 7.000000E+01  1.000000E+00  5.000000E+00
 8.000000E+01  1.000000E+00  5.000000E+00
 9.000000E+01  1.000000E+00  5.000000E+00
 1.000000E+02  1.000000E+00  5.000000E+00
 0.000000E+00  0.000000E+00  1.000000E+01
 1.000000E+01  0.000000E+00  1.000000E+01
 2.000000E+01  0.000000E+00  1.000000E+01
 3.000000E+01  0.000000E+00  1.000000E+01
 4.000000E+01  0.000000E+00  1.000000E+01
 5.000000E+01  0.000000E+00  1.000000E+01
 6.000000E+01  0.000000E+00  1.000000E+01
 7.000000E+01  0.000000E+00  1.000000E+01
 8.000000E+01  0.000000E+00  1.000000E+01
 9.000000E+01  0.000000E+00  1.000000E+01
 1.000000E+02  0.000000E+00  1.000000E+01
 0.000000E+00  1.000000E+00  1.000000E+01
 1.000000E+01  1.000000E+00  1.000000E+01
 2.000000E+01  1.000000E+00  1.000000E+01
 3.000000E+01  1.000000E+00  1.000000E+01
 4.000000E+01  1.000000E+00  1.000000E+01
 5.000000E+01  1.000000E+00  1.000000E+01
 6.000000E+01  1.000000E+00  1.000000E+01
 7.000000E+01  1.000000E+00  1.000000E+01
 8.000000E+01  1.000000E+00  1.000000E+01
 9.000000E+01  1.000000E+00  1.000000E+01
 1.000000E+02  1.000000E+00  1.000000E+01
 0.000000E+00  0.000000E+00  1.500000E+01
 1.000000E+01  0.000000E+00  1.500000E+01
 2.000000E+01  0.000000E+00  1.500000E+01
 3.000000E+01  0.000000E+00  1.500000E+01
 4.000000E+01  0.000000E+00  1.500000E+01
 5.000000E+01  0.000000E+00  1.500000E+01
 6.000000E+01  0.000000E+00  1.500000E+01
 7.000000E+01  0.000000E+00  1.500000E+01
 8.000000E+01  0.000000E+00  1.500000E+01
 9.000000E+01  0.000000E+00  1.500000E+01
 1.000000E+02  0.000000E+00  1.500000E+01
 0.000000E+00  1.000000E+00  1.500000E+01
 1.000000E+01  1.000000E+00  1.500000E+01
 2.000000E+01  1.000000E+00  1.500000E+01
 3.000000E+01  1.000000E+00  1.500000E+01
 4.000000E+01  1.000000E+00  1.500000E+01
 5.000000E+01  1.000000E+00  1.500000E+01
 6.000000E+01  1.000000E+00  1.500000E+01
 7.000000E+01  1.000000E+00  1.500000E+01
 8.000000E+01  1.000000E+00  1.500000E+01
 9.000000E+01  1.000000E+00  1.500000E+01
 1.000000E+02  1.000000E+00  1.500000E+01
 0.000000E+00  0.000000E+00  2.000000E+01
 1.000000E+01  0.000000E+00  2.000000E+01
 2.000000E+01  0.000000E+00  2.000000E+01
 3.000000E+01  0.000000E+00  2.000000E+01
 4.000000E+01  0.000000E+00  2.000000E+01
 5.000000E+01  0.000000E+00  2.000000E+01
 6.000000E+01  0.000000E+00  2.000000E+01
 7.000000E+01  0.000000E+00  2.000000E+01
 8.000000E+01  0.000000E+00  2.000000E+01
 9.000000E+01  0.000000E+00  2.000000E+01
 1.000000E+02  0.000000E+00  2.000000E+01
 0.000000E+00  1.000000E+00  2.000000E+01
 1.000000E+01  1.000000E+00  2.000000E+01
 2.000000E+01  1.000000E+00  2.000000E+01
 3.000000E+01  1.000000E+00  2.000000E+01
 4.000000E+01  1.000000E+00  2.000000E+01
 5.000000E+01  1.000000E+00  2.000000E+01
 6.000000E+01  1.000000E+00  2.000000E+01
 7.000000E+01  1.000000E+00  2.000000E+01
 8.000000E+01  1.000000E+00  2.000000E+01
 9.000000E+01  1.000000E+00  2.000000E+01
 1.000000E+02  1.000000E+00  2.000000E+01
 0.000000E+00  0.000000E+00  2.500000E+01
 1.000000E+01  0.000000E+00  2.500000E+01
 2.000000E+01  0.000000E+00  2.500000E+01
 3.000000E+01  0.000000E+00  2.500000E+01
 4.000000E+01  0.000000E+00  2.500000E+01
 5.000000E+01  0.000000E+00  2.500000E+01
 6.000000E+01  0.000000E+00  2.500000E+01
 7.000000E+01  0.000000E+00  2.500000E+01
 8.000000E+01  0.000000E+00  2.500000E+01
 9.000000E+01  0.000000E+00  2.500000E+01
 1.000000E+02  0.000000E+00  2.500000E+01
 0.000000E+00  1.000000E+00  2.500000E+01
 1.000000E+01  1.000000E+00  2.500000E+01
 2.000000E+01  1.000000E+00  2.500000E+01
 3.000000E+01  1.000000E+00  2.500000E+01
 4.000000E+01  1.000000E+00  2.500000E+01
 5.000000E+01  1.000000E+00  2.500000E+01
 6.000000E+01  1.000000E+00  2.500000E+01
 7.000000E+01  1.000000E+00  2.500000E+01
 8.000000E+01  1.000000E+00  2.500000E+01
 9.000000E+01  1.000000E+00  2.500000E+01
 1.000000E+02  1.000000E+00  2.500000E+01
 0.000000E+00  0.000000E+00  3.000000E+01
 1.000000E+01  0.000000E+00  3.000000E+01
 2.000000E+01  0.000000E+00  3.000000E+01
 3.000000E+01  0.000000E+00  3.000000E+01
 4.000000E+01  0.000000E+00  3.000000E+01
 5.000000E+01  0.000000E+00  3.000000E+01
 6.000000E+01  0.000000E+00  3.000000E+01
 7.000000E+01  0.000000E+00  3.000000E+01
 8.000000E+01  0.000000E+00  3.000000E+01
 9.000000E+01  0.000000E+00  3.000000E+01
 1.000000E+02  0.000000E+00  3.000000E+01
 0.000000E+00  1.000000E+00  3.000000E+01
 1.000000E+01  1.000000E+00  3.000000E+01
 2.000000E+01  1.000000E+00  3.000000E+01
 3.000000E+01  1.000000E+00  3.000000E+01
 4.000000E+01  1.000000E+00  3.000000E+01
 5.000000E+01  1.000000E+00  3.000000E+01
 6.000000E+01  1.000000E+00  3.000000E+01
 7.000000E+01  1.000000E+00  3.000000E+01
 8.000000E+01  1.000000E+00  3.000000E+01
 9.000000E+01  1.000000E+00  3.000000E+01
 1.000000E+02  1.000000E+00  3.000000E+01
 0.000000E+00  0.000000E+00  3.500000E+01
 1.000000E+01  0.000000E+00  3.500000E+01
 2.000000E+01  0.000000E+00  3.500000E+01
 3.000000E+01  0.000000E+00  3.500000E+01
 4.000000E+01  0.000000E+00  3.500000E+01
 5.000000E+01  0.000000E+00  3.500000E+01
 6.000000E+01  0.000000E+00  3.500000E+01
 7.000000E+01  0.000000E+00  3.500000E+01
 8.000000E+01  0.000000E+00  3.500000E+01
 9.000000E+01  0.000000E+00  3.500000E+01
 1.000000E+02  0.000000E+00  3.500000E+01
 0.000000E+00  1.000000E+00  3.500000E+01
 1.000000E+01  1.000000E+00  3.500000E+01
 2.000000E+01  1.000000E+00  3.500000E+01
 3.000000E+01  1.000000E+00  3.500000E+01
 4.000000E+01  1.000000E+00  3.500000E+01
 5.000000E+01  1.000000E+00  3.500000E+01
 6.000000E+01  1.000000E+00  3.500000E+01
 7.000000E+01  1.000000E+00  3.500000E+01
 8.000000E+01  1.000000E+00  3.500000E+01
 9.000000E+01  1.000000E+00  3.500000E+01
 1.000000E+02  1.000000E+00  3.500000E+01
 0.000000E+00  0.000000E+00  4.000000E+01
 1.000000E+01  0.000000E+00  4.000000E+01
 2.000000E+01  0.000000E+00  4.000000E+01
 3.000000E+01  0.000000E+00  4.000000E+01
 4.000000E+01  0.000000E+00  4.000000E+01
 5.000000E+01  0.000000E+00  4.000000E+01
 6.000000E+01  0.000000E+00  4.000000E+01
 7.000000E+01  0.000000E+00  4.000000E+01
 8.000000E+01  0.000000E+00  4.000000E+01
 9.000000E+01  0.000000E+00  4.000000E+01
 1.000000E+02  0.000000E+00  4.000000E+01
 0.000000E+00  1.000000E+00  4.000000E+01
 1.000000E+01  1.000000E+00  4.000000E+01
 2.000000E+01  1.000000E+00  4.000000E+01
 3.000000E+01  1.000000E+00  4.000000E+01
 4.000000E+01  1.000000E+00  4.000000E+01
 5.000000E+01  1.000000E+00  4.000000E+01
 6.000000E+01  1.000000E+00  4.000000E+01
 7.000000E+01  1.000000E+00  4.000000E+01
 8.000000E+01  1.000000E+00  4.000000E+01
 9.000000E+01  1.000000E+00  4.000000E+01
 1.000000E+02  1.000000E+00  4.000000E+01
 0.000000E+00  0.000000E+00  4.500000E+01
 1.000000E+01  0.000000E+00  4.500000E+01
 2.000000E+01  0.000000E+00  4.500000E+01
 3.000000E+01  0.000000E+00  4.500000E+01
 4.000000E+01  0.000000E+00  4.500000E+01
 5.000000E+01  0.000000E+00  4.500000E+01
 6.000000E+01  0.000000E+00  4.500000E+01
 7.000000E+01  0.000000E+00  4.500000E+01
 8.000000E+01  0.000000E+00  4.500000E+01
 9.000000E+01  0.000000E+00  4.500000E+01
 1.000000E+02  0.000000E+00  4.500000E+01
 0.000000E+00  1.000000E+00  4.500000E+01
 1.000000E+01  1.000000E+00  4.500000E+01
 2.000000E+01  1.000000E+00  4.500000E+01
 3.000000E+01  1.000000E+00  4.500000E+01
 4.000000E+01  1.000000E+00  4.500000E+01
 5.000000E+01  1.000000E+00  4.500000E+01
 6.000000E+01  1.000000E+00  4.500000E+01
 7.000000E+01  1.000000E+00  4.500000E+01
 8.000000E+01  1.000000E+00  4.500000E+01
 9.000000E+01  1.000000E+00  4.500000E+01
 1.000000E+02  1.000000E+00  4.500000E+01
 0.000000E+00  0.000000E+00  5.000000E+01
 1.000000E+01  0.000000E+00  5.000000E+01
 2.000000E+01  0.000000E+00  5.000000E+01
 3.000000E+01  0.000000E+00  5.000000E+01
 4.000000E+01  0.000000E+00  5.000000E+01
 5.000000E+01  0.000000E+00  5.000000E+01
 6.000000E+01  0.000000E+00  5.000000E+01
 7.000000E+01  0.000000E+00  5.000000E+01
 8.000000E+01  0.000000E+00  5.000000E+01
 9.000000E+01  0.000000E+00  5.000000E+01
 1.000000E+02  0.000000E+00  5.000000E+01
 0.000000E+00  1.000000E+00  5.000000E+01
 1.000000E+01  1.000000E+00  5.000000E+01
 2.000000E+01  1.000000E+00  5.000000E+01
 3.000000E+01  1.000000E+00  5.000000E+01
[...]
CELL_DATA      200
SCALARS Porosity             float 1
LOOKUP_TABLE default
 4.377042E-01  4.377091E-01  4.377099E-01  4.377100E-01  4.377100E-01  4.377099E-01  4.377099E-01  4.377099E-01  4.377099E-01  4.377099E-01
 4.376569E-01  4.377015E-01  4.377089E-01  4.377099E-01  4.377099E-01  4.377099E-01  4.377099E-01  4.377099E-01  4.377099E-01  4.377099E-01
 4.374577E-01  4.376633E-01  4.377034E-01  4.377092E-01  4.377099E-01  4.377099E-01  4.377099E-01  4.377099E-01  4.377099E-01  4.377099E-01
 4.369207E-01  4.375344E-01  4.376819E-01  4.377065E-01  4.377096E-01  4.377099E-01  4.377099E-01  4.377099E-01  4.377099E-01  4.377099E-01
 4.360539E-01  4.372236E-01  4.376209E-01  4.376981E-01  4.377087E-01  4.377098E-01  4.377099E-01  4.377099E-01  4.377099E-01  4.377099E-01
 4.360802E-01  4.367172E-01  4.374930E-01  4.376784E-01  4.377065E-01  4.377096E-01  4.377099E-01  4.377099E-01  4.377099E-01  4.377098E-01
 4.396574E-01  4.364101E-01  4.373157E-01  4.376471E-01  4.377027E-01  4.377093E-01  4.377098E-01  4.377099E-01  4.377099E-01  4.377098E-01
 4.396588E-01  4.363203E-01  4.372259E-01  4.376260E-01  4.376997E-01  4.377090E-01  4.377098E-01  4.377099E-01  4.377099E-01  4.377098E-01
 4.396597E-01  4.362830E-01  4.371740E-01  4.376117E-01  4.376975E-01  4.377087E-01  4.377098E-01  4.377099E-01  4.377099E-01  4.377098E-01
 4.396599E-01  4.362680E-01  4.371497E-01  4.376044E-01  4.376963E-01  4.377086E-01  4.377098E-01  4.377099E-01  4.377099E-01  4.377098E-01
 4.396595E-01  4.362679E-01  4.371498E-01  4.376044E-01  4.376963E-01  4.377086E-01  4.377098E-01  4.377099E-01  4.377099E-01  4.377098E-01
 4.396585E-01  4.362827E-01  4.371740E-01  4.376118E-01  4.376975E-01  4.377087E-01  4.377098E-01  4.377099E-01  4.377099E-01  4.377098E-01
 4.396569E-01  4.363198E-01  4.372260E-01  4.376261E-01  4.376998E-01  4.377090E-01  4.377098E-01  4.377099E-01  4.377099E-01  4.377098E-01
 4.396550E-01  4.364097E-01  4.373158E-01  4.376472E-01  4.377027E-01  4.377093E-01  4.377099E-01  4.377099E-01  4.377099E-01  4.377098E-01
 4.360790E-01  4.367174E-01  4.374933E-01  4.376786E-01  4.377066E-01  4.377096E-01  4.377099E-01  4.377099E-01  4.377099E-01  4.377098E-01
 4.360541E-01  4.372241E-01  4.376212E-01  4.376983E-01  4.377088E-01  4.377098E-01  4.377099E-01  4.377099E-01  4.377099E-01  4.377098E-01
 4.369213E-01  4.375349E-01  4.376822E-01  4.377067E-01  4.377097E-01  4.377099E-01  4.377099E-01  4.377099E-01  4.377099E-01  4.377099E-01
 4.374583E-01  4.376636E-01  4.377035E-01  4.377093E-01  4.377099E-01  4.377099E-01  4.377099E-01  4.377099E-01  4.377099E-01  4.377099E-01
 4.376573E-01  4.377017E-01  4.377090E-01  4.377099E-01  4.377099E-01  4.377099E-01  4.377099E-01  4.377099E-01  4.377099E-01  4.377099E-01
 4.377043E-01  4.377092E-01  4.377099E-01  4.377100E-01  4.377099E-01  4.377099E-01  4.377099E-01  4.377099E-01  4.377099E-01  4.377099E-01


SCALARS Permeability         float 1
LOOKUP_TABLE default
 8.829510E-13  8.829762E-13  8.829799E-13  8.829804E-13  8.829803E-13  8.829803E-13  8.829802E-13  8.829801E-13  8.829801E-13  8.829800E-13
 8.827124E-13  8.829376E-13  8.829749E-13  8.829798E-13  8.829802E-13  8.829802E-13  8.829801E-13  8.829801E-13  8.829801E-13  8.829800E-13
 8.817057E-13  8.827444E-13  8.829469E-13  8.829766E-13  8.829799E-13  8.829801E-13  8.829801E-13  8.829800E-13  8.829800E-13  8.829799E-13
 8.789962E-13  8.820931E-13  8.828386E-13  8.829631E-13  8.829786E-13  8.829800E-13  8.829800E-13  8.829800E-13  8.829800E-13  8.829799E-13
 8.746334E-13  8.805240E-13  8.825303E-13  8.829205E-13  8.829741E-13  8.829796E-13  8.829800E-13  8.829800E-13  8.829800E-13  8.829798E-13
 8.747656E-13  8.779709E-13  8.818843E-13  8.828210E-13  8.829628E-13  8.829786E-13  8.829799E-13  8.829799E-13  8.829799E-13  8.829797E-13
 8.928572E-13  8.764248E-13  8.809885E-13  8.826625E-13  8.829435E-13  8.829768E-13  8.829798E-13  8.829799E-13  8.829799E-13  8.829797E-13
 8.928639E-13  8.759727E-13  8.805358E-13  8.825561E-13  8.829286E-13  8.829753E-13  8.829796E-13  8.829799E-13  8.829799E-13  8.829796E-13
 8.928686E-13  8.757853E-13  8.802736E-13  8.824837E-13  8.829174E-13  8.829741E-13  8.829795E-13  8.829798E-13  8.829798E-13  8.829796E-13
 8.928699E-13  8.757098E-13  8.801513E-13  8.824467E-13  8.829114E-13  8.829735E-13  8.829795E-13  8.829798E-13  8.829798E-13  8.829796E-13
 8.928678E-13  8.757092E-13  8.801514E-13  8.824468E-13  8.829114E-13  8.829735E-13  8.829795E-13  8.829798E-13  8.829798E-13  8.829796E-13
 8.928627E-13  8.757837E-13  8.802737E-13  8.824840E-13  8.829176E-13  8.829742E-13  8.829795E-13  8.829798E-13  8.829798E-13  8.829796E-13
 8.928545E-13  8.759704E-13  8.805362E-13  8.825566E-13  8.829288E-13  8.829754E-13  8.829797E-13  8.829799E-13  8.829799E-13  8.829796E-13
 8.928448E-13  8.764226E-13  8.809893E-13  8.826631E-13  8.829438E-13  8.829769E-13  8.829798E-13  8.829799E-13  8.829799E-13  8.829796E-13
 8.747591E-13  8.779718E-13  8.818856E-13  8.828218E-13  8.829631E-13  8.829787E-13  8.829799E-13  8.829799E-13  8.829799E-13  8.829797E-13
 8.746341E-13  8.805264E-13  8.825318E-13  8.829212E-13  8.829744E-13  8.829797E-13  8.829800E-13  8.829799E-13  8.829799E-13  8.829797E-13
 8.789994E-13  8.820955E-13  8.828399E-13  8.829636E-13  8.829788E-13  8.829801E-13  8.829800E-13  8.829799E-13  8.829799E-13  8.829798E-13
 8.817086E-13  8.827462E-13  8.829478E-13  8.829770E-13  8.829800E-13  8.829801E-13  8.829800E-13  8.829799E-13  8.829800E-13  8.829798E-13
 8.827141E-13  8.829386E-13  8.829753E-13  8.829799E-13  8.829802E-13  8.829801E-13  8.829800E-13  8.829800E-13  8.829800E-13  8.829799E-13
 8.829515E-13  8.829764E-13  8.829800E-13  8.829803E-13  8.829802E-13  8.829801E-13  8.829800E-13  8.829801E-13  8.829801E-13  8.829800E-13


SCALARS Liquid_Pressure      float 1
LOOKUP_TABLE default
 8.009780E+06  7.964852E+06  7.898038E+06  7.825699E+06  7.756047E+06  7.692200E+06  7.634796E+06  7.583452E+06  7.537463E+06  7.496102E+06
 7.987085E+06  7.934475E+06  7.861220E+06  7.784945E+06  7.713153E+06  7.648195E+06  7.590223E+06  7.538587E+06  7.492442E+06  7.450987E+06
 7.990729E+06  7.919753E+06  7.832635E+06  7.748361E+06  7.672352E+06  7.605240E+06  7.546175E+06  7.493980E+06  7.447538E+06  7.405906E+06
 8.030043E+06  7.922274E+06  7.811916E+06  7.715437E+06  7.633306E+06  7.563145E+06  7.502553E+06  7.449580E+06  7.402726E+06  7.360850E+06
 8.123828E+06  7.943747E+06  7.798091E+06  7.685312E+06  7.595500E+06  7.521632E+06  7.459211E+06  7.405317E+06  7.357976E+06  7.315812E+06
 8.308339E+06  7.984108E+06  7.789033E+06  7.656692E+06  7.558261E+06  7.480357E+06  7.415978E+06  7.361103E+06  7.313248E+06  7.270781E+06
 8.651473E+06  8.035940E+06  7.780813E+06  7.627863E+06  7.520793E+06  7.438938E+06  7.372666E+06  7.316850E+06  7.268502E+06  7.225746E+06
 8.823756E+06  8.069706E+06  7.767677E+06  7.596898E+06  7.482280E+06  7.396995E+06  7.329090E+06  7.272467E+06  7.223699E+06  7.180697E+06
 8.897535E+06  8.077724E+06  7.745624E+06  7.562145E+06  7.441999E+06  7.354193E+06  7.285091E+06  7.227879E+06  7.178804E+06  7.135623E+06
 8.905271E+06  8.058969E+06  7.712473E+06  7.522474E+06  7.399423E+06  7.310285E+06  7.240553E+06  7.183030E+06  7.133794E+06  7.090518E+06
 8.860052E+06  8.013793E+06  7.667314E+06  7.477323E+06  7.354277E+06  7.265143E+06  7.195412E+06  7.137891E+06  7.088655E+06  7.045379E+06
 8.761884E+06  7.942197E+06  7.610146E+06  7.426692E+06  7.306561E+06  7.218765E+06  7.149670E+06  7.092461E+06  7.043388E+06  7.000205E+06
 8.597697E+06  7.843839E+06  7.541884E+06  7.371145E+06  7.256552E+06  7.171282E+06  7.103387E+06  7.046770E+06  6.998004E+06  6.955000E+06
 8.335061E+06  7.719749E+06  7.464712E+06  7.311813E+06  7.204776E+06  7.122942E+06  7.056683E+06  7.000875E+06  6.952530E+06  6.909772E+06
 7.901689E+06  7.577618E+06  7.382632E+06  7.250349E+06  7.151955E+06  7.074077E+06  7.009716E+06  6.954851E+06  6.906998E+06  6.864529E+06
 7.626942E+06  7.446972E+06  7.301399E+06  7.188679E+06  7.098909E+06  7.025070E+06  6.962670E+06  6.908787E+06  6.861449E+06  6.819281E+06
 7.442915E+06  7.335223E+06  7.224939E+06  7.128519E+06  7.046432E+06  6.976304E+06  6.915734E+06  6.862775E+06  6.815924E+06  6.774041E+06
 7.313346E+06  7.242428E+06  7.155375E+06  7.071159E+06  6.995197E+06  6.928121E+06  6.869081E+06  6.816900E+06  6.770460E+06  6.728819E+06
 7.219436E+06  7.166873E+06  7.093678E+06  7.017461E+06  6.945718E+06  6.880799E+06  6.822853E+06  6.771233E+06  6.725090E+06  6.683624E+06
 7.151852E+06  7.106966E+06  7.040212E+06  6.967933E+06  6.898334E+06  6.834528E+06  6.777152E+06  6.725825E+06  6.679838E+06  6.638463E+06


SCALARS Temperature          float 1
LOOKUP_TABLE default
 1.500984E+02  1.501064E+02  1.501168E+02  1.501273E+02  1.501354E+02  1.501382E+02  1.501329E+02  1.501189E+02  1.500991E+02  1.500778E+02
 1.501018E+02  1.501116E+02  1.501236E+02  1.501355E+02  1.501459E+02  1.501525E+02  1.501513E+02  1.501391E+02  1.501171E+02  1.500906E+02
 1.501016E+02  1.501145E+02  1.501290E+02  1.501425E+02  1.501542E+02  1.501628E+02  1.501648E+02  1.501553E+02  1.501334E+02  1.501039E+02
 1.500966E+02  1.501150E+02  1.501334E+02  1.501491E+02  1.501621E+02  1.501721E+02  1.501763E+02  1.501696E+02  1.501486E+02  1.501172E+02
 1.500843E+02  1.501132E+02  1.501372E+02  1.501558E+02  1.501702E+02  1.501813E+02  1.501873E+02  1.501827E+02  1.501631E+02  1.501304E+02
 1.500591E+02  1.501097E+02  1.501413E+02  1.501631E+02  1.501791E+02  1.501911E+02  1.501983E+02  1.501955E+02  1.501770E+02  1.501434E+02
 1.500096E+02  1.501064E+02  1.501473E+02  1.501721E+02  1.501893E+02  1.502019E+02  1.502098E+02  1.502083E+02  1.501906E+02  1.501561E+02
 1.500031E+02  1.501139E+02  1.501579E+02  1.501834E+02  1.502006E+02  1.502132E+02  1.502214E+02  1.502206E+02  1.502035E+02  1.501680E+02
 1.500010E+02  1.501191E+02  1.501658E+02  1.501921E+02  1.502097E+02  1.502224E+02  1.502308E+02  1.502304E+02  1.502136E+02  1.501774E+02
 1.500009E+02  1.501228E+02  1.501715E+02  1.501986E+02  1.502165E+02  1.502293E+02  1.502379E+02  1.502377E+02  1.502209E+02  1.501840E+02
 1.500009E+02  1.501227E+02  1.501714E+02  1.501986E+02  1.502165E+02  1.502294E+02  1.502379E+02  1.502378E+02  1.502210E+02  1.501841E+02
 1.500024E+02  1.501223E+02  1.501706E+02  1.501979E+02  1.502161E+02  1.502292E+02  1.502378E+02  1.502373E+02  1.502200E+02  1.501826E+02
 1.500061E+02  1.501207E+02  1.501678E+02  1.501953E+02  1.502138E+02  1.502271E+02  1.502356E+02  1.502346E+02  1.502163E+02  1.501784E+02
 1.500147E+02  1.501179E+02  1.501633E+02  1.501908E+02  1.502097E+02  1.502233E+02  1.502316E+02  1.502296E+02  1.502099E+02  1.501715E+02
 1.500774E+02  1.501321E+02  1.501670E+02  1.501911E+02  1.502086E+02  1.502215E+02  1.502288E+02  1.502250E+02  1.502032E+02  1.501638E+02
 1.501158E+02  1.501478E+02  1.501742E+02  1.501945E+02  1.502100E+02  1.502217E+02  1.502275E+02  1.502210E+02  1.501962E+02  1.501555E+02
 1.501413E+02  1.501621E+02  1.501823E+02  1.501993E+02  1.502130E+02  1.502233E+02  1.502267E+02  1.502164E+02  1.501880E+02  1.501460E+02
 1.501595E+02  1.501743E+02  1.501902E+02  1.502045E+02  1.502167E+02  1.502252E+02  1.502250E+02  1.502096E+02  1.501772E+02  1.501344E+02
 1.501729E+02  1.501842E+02  1.501972E+02  1.502096E+02  1.502201E+02  1.502254E+02  1.502196E+02  1.501978E+02  1.501617E+02  1.501199E+02
 1.501827E+02  1.501916E+02  1.502025E+02  1.502128E+02  1.502193E+02  1.502175E+02  1.502025E+02  1.501739E+02  1.501373E+02  1.501008E+02


SCALARS pH                   float 1
LOOKUP_TABLE default
 6.145670E+00  6.145699E+00  6.145731E+00  6.145764E+00  6.145795E+00  6.145818E+00  6.145827E+00  6.145806E+00  6.145734E+00  6.145575E+00
 6.145647E+00  6.145677E+00  6.145709E+00  6.145742E+00  6.145775E+00  6.145805E+00  6.145824E+00  6.145821E+00  6.145778E+00  6.145656E+00
 6.145608E+00  6.145665E+00  6.145699E+00  6.145732E+00  6.145766E+00  6.145799E+00  6.145824E+00  6.145829E+00  6.145800E+00  6.145695E+00
 6.145261E+00  6.145639E+00  6.145692E+00  6.145727E+00  6.145762E+00  6.145796E+00  6.145824E+00  6.145835E+00  6.145815E+00  6.145722E+00
 6.141374E+00  6.145477E+00  6.145680E+00  6.145725E+00  6.145761E+00  6.145796E+00  6.145827E+00  6.145842E+00  6.145828E+00  6.145742E+00
 6.110716E+00  6.144058E+00  6.145634E+00  6.145725E+00  6.145764E+00  6.145801E+00  6.145833E+00  6.145852E+00  6.145842E+00  6.145759E+00
 5.959565E+00  6.135789E+00  6.145378E+00  6.145726E+00  6.145773E+00  6.145810E+00  6.145844E+00  6.145864E+00  6.145857E+00  6.145775E+00
 5.959545E+00  6.133737E+00  6.145273E+00  6.145739E+00  6.145789E+00  6.145825E+00  6.145858E+00  6.145880E+00  6.145874E+00  6.145792E+00
 5.959542E+00  6.132769E+00  6.145211E+00  6.145750E+00  6.145802E+00  6.145838E+00  6.145871E+00  6.145894E+00  6.145889E+00  6.145806E+00
 5.959543E+00  6.132378E+00  6.145184E+00  6.145758E+00  6.145812E+00  6.145847E+00  6.145881E+00  6.145903E+00  6.145898E+00  6.145814E+00
 5.959540E+00  6.132374E+00  6.145180E+00  6.145756E+00  6.145810E+00  6.145846E+00  6.145880E+00  6.145902E+00  6.145898E+00  6.145813E+00
 5.959539E+00  6.132761E+00  6.145207E+00  6.145749E+00  6.145803E+00  6.145840E+00  6.145874E+00  6.145896E+00  6.145891E+00  6.145805E+00
 5.959543E+00  6.133727E+00  6.145268E+00  6.145739E+00  6.145793E+00  6.145831E+00  6.145865E+00  6.145887E+00  6.145879E+00  6.145792E+00
 5.959569E+00  6.135780E+00  6.145376E+00  6.145730E+00  6.145782E+00  6.145821E+00  6.145856E+00  6.145875E+00  6.145865E+00  6.145776E+00
 6.110728E+00  6.144059E+00  6.145641E+00  6.145738E+00  6.145781E+00  6.145819E+00  6.145852E+00  6.145869E+00  6.145854E+00  6.145760E+00
 6.141388E+00  6.145491E+00  6.145700E+00  6.145749E+00  6.145788E+00  6.145825E+00  6.145855E+00  6.145867E+00  6.145845E+00  6.145744E+00
 6.145284E+00  6.145668E+00  6.145724E+00  6.145763E+00  6.145800E+00  6.145835E+00  6.145862E+00  6.145867E+00  6.145836E+00  6.145724E+00
 6.145645E+00  6.145707E+00  6.145745E+00  6.145781E+00  6.145816E+00  6.145849E+00  6.145870E+00  6.145865E+00  6.145821E+00  6.145695E+00
 6.145697E+00  6.145732E+00  6.145766E+00  6.145801E+00  6.145835E+00  6.145863E+00  6.145874E+00  6.145856E+00  6.145793E+00  6.145648E+00
 6.145729E+00  6.145762E+00  6.145795E+00  6.145828E+00  6.145856E+00  6.145872E+00  6.145865E+00  6.145824E+00  6.145731E+00  6.145554E+00


SCALARS Total_H+             float 1
LOOKUP_TABLE default
-3.046787E-03 -3.045570E-03 -3.044105E-03 -3.042450E-03 -3.040690E-03 -3.038936E-03 -3.037321E-03 -3.035974E-03 -3.035032E-03 -3.034757E-03
-3.048019E-03 -3.046885E-03 -3.045498E-03 -3.043885E-03 -3.042094E-03 -3.040220E-03 -3.038421E-03 -3.036871E-03 -3.035702E-03 -3.035148E-03
-3.048772E-03 -3.047576E-03 -3.046198E-03 -3.044625E-03 -3.042856E-03 -3.040948E-03 -3.039047E-03 -3.037365E-03 -3.036070E-03 -3.035398E-03
-3.048194E-03 -3.048132E-03 -3.046660E-03 -3.045085E-03 -3.043338E-03 -3.041426E-03 -3.039468E-03 -3.037687E-03 -3.036296E-03 -3.035556E-03
-3.027924E-03 -3.048115E-03 -3.047005E-03 -3.045371E-03 -3.043629E-03 -3.041722E-03 -3.039731E-03 -3.037878E-03 -3.036412E-03 -3.035635E-03
-2.857677E-03 -3.041146E-03 -3.047109E-03 -3.045507E-03 -3.043750E-03 -3.041849E-03 -3.039843E-03 -3.037941E-03 -3.036420E-03 -3.035631E-03
-2.134691E-03 -2.994689E-03 -3.045886E-03 -3.045453E-03 -3.043696E-03 -3.041808E-03 -3.039801E-03 -3.037871E-03 -3.036317E-03 -3.035537E-03
-2.134593E-03 -2.982787E-03 -3.044989E-03 -3.045183E-03 -3.043470E-03 -3.041618E-03 -3.039628E-03 -3.037688E-03 -3.036120E-03 -3.035367E-03
-2.134512E-03 -2.977063E-03 -3.044359E-03 -3.044939E-03 -3.043253E-03 -3.041425E-03 -3.039448E-03 -3.037505E-03 -3.035931E-03 -3.035205E-03
-2.134487E-03 -2.974705E-03 -3.044006E-03 -3.044752E-03 -3.043073E-03 -3.041254E-03 -3.039283E-03 -3.037340E-03 -3.035769E-03 -3.035071E-03
-2.134530E-03 -2.974739E-03 -3.044031E-03 -3.044769E-03 -3.043085E-03 -3.041262E-03 -3.039288E-03 -3.037343E-03 -3.035770E-03 -3.035072E-03
-2.134625E-03 -2.977069E-03 -3.044280E-03 -3.044807E-03 -3.043089E-03 -3.041241E-03 -3.039254E-03 -3.037313E-03 -3.035759E-03 -3.035080E-03
-2.134771E-03 -2.982745E-03 -3.044786E-03 -3.044886E-03 -3.043115E-03 -3.041230E-03 -3.039225E-03 -3.037293E-03 -3.035769E-03 -3.035115E-03
-2.134915E-03 -2.994548E-03 -3.045518E-03 -3.044959E-03 -3.043127E-03 -3.041198E-03 -3.039174E-03 -3.037262E-03 -3.035784E-03 -3.035159E-03
-2.857507E-03 -3.040641E-03 -3.046431E-03 -3.044721E-03 -3.042898E-03 -3.040961E-03 -3.038947E-03 -3.037086E-03 -3.035687E-03 -3.035121E-03
-3.027217E-03 -3.047195E-03 -3.045956E-03 -3.044238E-03 -3.042445E-03 -3.040513E-03 -3.038531E-03 -3.036757E-03 -3.035475E-03 -3.035004E-03
-3.046994E-03 -3.046784E-03 -3.045215E-03 -3.043579E-03 -3.041796E-03 -3.039873E-03 -3.037951E-03 -3.036307E-03 -3.035185E-03 -3.034839E-03
-3.047107E-03 -3.045799E-03 -3.044350E-03 -3.042734E-03 -3.040945E-03 -3.039047E-03 -3.037232E-03 -3.035773E-03 -3.034853E-03 -3.034660E-03
-3.045906E-03 -3.044690E-03 -3.043255E-03 -3.041617E-03 -3.039827E-03 -3.038009E-03 -3.036387E-03 -3.035188E-03 -3.034511E-03 -3.034495E-03
-3.044262E-03 -3.042997E-03 -3.041513E-03 -3.039868E-03 -3.038174E-03 -3.036600E-03 -3.035337E-03 -3.034502E-03 -3.034127E-03 -3.034354E-03


SCALARS Total_SiO2(aq)       float 1
LOOKUP_TABLE default
 1.040377E-02  1.040168E-02  1.040215E-02  1.040299E-02  1.040369E-02  1.040396E-02  1.040353E-02  1.040235E-02  1.040066E-02  1.039886E-02
 1.043019E-02  1.040637E-02  1.040328E-02  1.040375E-02  1.040459E-02  1.040518E-02  1.040510E-02  1.040409E-02  1.040222E-02  1.039998E-02
 1.054019E-02  1.042777E-02  1.040681E-02  1.040470E-02  1.040533E-02  1.040605E-02  1.040625E-02  1.040548E-02  1.040362E-02  1.040114E-02
 1.084259E-02  1.049902E-02  1.041905E-02  1.040674E-02  1.040615E-02  1.040686E-02  1.040724E-02  1.040669E-02  1.040493E-02  1.040229E-02
 1.142811E-02  1.067315E-02  1.045308E-02  1.041198E-02  1.040734E-02  1.040769E-02  1.040817E-02  1.040782E-02  1.040616E-02  1.040343E-02
 1.225079E-02  1.099089E-02  1.052473E-02  1.042348E-02  1.040933E-02  1.040864E-02  1.040912E-02  1.040891E-02  1.040736E-02  1.040456E-02
 1.308874E-02  1.140557E-02  1.062988E-02  1.044165E-02  1.041231E-02  1.040975E-02  1.041012E-02  1.041000E-02  1.040853E-02  1.040567E-02
 1.308760E-02  1.151458E-02  1.068333E-02  1.045426E-02  1.041492E-02  1.041089E-02  1.041113E-02  1.041106E-02  1.040963E-02  1.040670E-02
 1.308693E-02  1.156331E-02  1.071460E-02  1.046293E-02  1.041691E-02  1.041180E-02  1.041194E-02  1.041190E-02  1.041050E-02  1.040751E-02
 1.308677E-02  1.158312E-02  1.072936E-02  1.046754E-02  1.041814E-02  1.041247E-02  1.041255E-02  1.041253E-02  1.041113E-02  1.040809E-02
 1.308702E-02  1.158318E-02  1.072936E-02  1.046753E-02  1.041814E-02  1.041247E-02  1.041256E-02  1.041254E-02  1.041114E-02  1.040809E-02
 1.308772E-02  1.156374E-02  1.071498E-02  1.046339E-02  1.041743E-02  1.041237E-02  1.041254E-02  1.041250E-02  1.041105E-02  1.040797E-02
 1.308891E-02  1.151536E-02  1.068412E-02  1.045522E-02  1.041601E-02  1.041206E-02  1.041235E-02  1.041226E-02  1.041073E-02  1.040760E-02
 1.309052E-02  1.140671E-02  1.063114E-02  1.044318E-02  1.041402E-02  1.041157E-02  1.041198E-02  1.041183E-02  1.041019E-02  1.040700E-02
 1.225267E-02  1.099264E-02  1.052675E-02  1.042578E-02  1.041181E-02  1.041122E-02  1.041174E-02  1.041144E-02  1.040962E-02  1.040634E-02
 1.143054E-02  1.067579E-02  1.045605E-02  1.041520E-02  1.041071E-02  1.041114E-02  1.041162E-02  1.041110E-02  1.040902E-02  1.040562E-02
 1.084597E-02  1.050272E-02  1.042306E-02  1.041096E-02  1.041048E-02  1.041124E-02  1.041156E-02  1.041072E-02  1.040832E-02  1.040480E-02
 1.054476E-02  1.043264E-02  1.041192E-02  1.040995E-02  1.041067E-02  1.041140E-02  1.041143E-02  1.041016E-02  1.040740E-02  1.040380E-02
 1.043603E-02  1.041244E-02  1.040951E-02  1.041007E-02  1.041095E-02  1.041144E-02  1.041099E-02  1.040915E-02  1.040608E-02  1.040254E-02