# vtk DataFile Version 2.0
PFLOTRAN output
ASCII
DATASET UNSTRUCTURED_GRID
POINTS          462 float
 0.000000E+00  0.000000E+00  0.000000E+00
 1.000000E+01  0.000000E+00  0.000000E+00
 2.000000E+01  0.000000E+00  0.000000E+00
 3.000000E+01  0.000000E+00  0.000000E+00
 4.000000E+01  0.000000E+00  0.000000E+00
 5.000000E+01  0.000000E+00  0.000000E+00
 6.000000E+01  0.000000E+00  0.000000E+00
 7.000000E+01  0.000000E+00  0.000000E+00
 8.000000E+01  0.000000E+00  0.000000E+00
 9.000000E+01  0.000000E+00  0.000000E+00
 1.000000E+02  0.000000E+00  0.000000E+00
 0.000000E+00  1.000000E+00  0.000000E+00
 1.000000E+01  1.000000E+00  0.000000E+00
 2.000000E+01  1.000000E+00  0.000000E+00
 3.000000E+01  1.000000E+00  0.000000E+00
 4.000000E+01  1.000000E+00  0.000000E+00
 5.000000E+01  1.000000E+00  0.000000E+00
 6.000000E+01  1.000000E+00  0.000000E+00
 7.000000E+01  1.000000E+00  0.000000E+00
 8.000000E+01  1.000000E+00  0.000000E+00
 9.000000E+01  1.000000E+00  0.000000E+00
 1.000000E+02  1.000000E+00  0.000000E+00
 0.000000E+00  0.000000E+00  5.000000E+00
 1.000000E+01  0.000000E+00  5.000000E+00
 2.000000E+01  0.000000E+00  5.000000E+00
 3.000000E+01  0.000000E+00  5.000000E+00
 4.000000E+01  0.000000E+00  5.000000E+00
 5.000000E+01  0.000000E+00  5.000000E+00
 6.000000E+01  0.000000E+00  5.000000E+00
 7.000000E+01  0.000000E+00  5.000000E+00
 8.000000E+01  0.000000E+00  5.000000E+00
 9.000000E+01  0.000000E+00  5.000000E+00
 1.000000E+02  0.000000E+00  5.000000E+00
 0.000000E+00  1.000000E+00  5.000000E+00
 1.000000E+01  1.000000E+00  5.000000E+00
 2.000000E+01  1.000000E+00  5.000000E+00
 3.000000E+01  1.000000E+00  5.000000E+00
 4.000000E+01  1.000000E+00  5.000000E+00
 5.000000E+01  1.000000E+00  5.000000E+00
 6.000000E+01  1.000000E+00  5.000000E+00
 7.000000E+01  1.000000E+00  5.000000E+00
 8.000000E+01  1.000000E+00  5.000000E+00
 9.000000E+01  1.000000E+00  5.000000E+00
 1.000000E+02  1.000000E+00  5.000000E+00
 0.000000E+00  0.000000E+00  1.000000E+01
 1.000000E+01  0.000000E+00  1.000000E+01
 2.000000E+01  0.000000E+00  1.000000E+01
 3.000000E+01  0.000000E+00  1.000000E+01
 4.000000E+01  0.000000E+00  1.000000E+01
 5.000000E+01  0.000000E+00  1.000000E+01
 6.000000E+01  0.000000E+00  1.000000E+01
 7.000000E+01  0.000000E+00  1.000000E+01
 8.000000E+01  0.000000E+00  1.000000E+01
 9.000000E+01  0.000000E+00  1.000000E+01
 1.000000E+02  0.000000E+00  1.000000E+01
 0.000000E+00  1.000000E+00  1.000000E+01
 1.000000E+01  1.000000E+00  1.000000E+01
 2.000000E+01  1.000000E+00  1.000000E+01
 3.000000E+01  1.000000E+00  1.000000E+01
 4.000000E+01  1.000000E+00  1.000000E+01
 5.000000E+01  1.000000E+00  1.000000E+01
 6.000000E+01  1.000000E+00  1.000000E+01
 7.000000E+01  1.000000E+00  1.000000E+01
 8.000000E+01  1.000000E+00  1.000000E+01
 9.000000E+01  1.000000E+00  1.000000E+01
 1.000000E+02  1.000000E+00  1.000000E+01
 0.000000E+00  0.000000E+00  1.500000E+01
 1.000000E+01  0.000000E+00  1.500000E+01
 2.000000E+01  0.000000E+00  1.500000E+01
 3.000000E+01  0.000000E+00  1.500000E+01
 4.000000E+01  0.000000E+00  1.500000E+01
 5.000000E+01  0.000000E+00  1.500000E+01
 6.000000E+01  0.000000E+00  1.500000E+01
 7.000000E+01  0.000000E+00  1.500000E+01
 8.000000E+01  0.000000E+00  1.500000E+01
 9.000000E+01  0.000000E+00  1.500000E+01
 1.000000E+02  0.000000E+00  1.500000E+01
 0.000000E+00  1.000000E+00  1.500000E+01
 1.000000E+01  1.000000E+00  1.500000E+01
 2.000000E+01  1.000000E+00  1.500000E+01
 3.000000E+01  1.000000E+00  1.500000E+01
 4.000000E+01  1.000000E+00  1.500000E+01
 5.000000E+01  1.000000E+00  1.500000E+01
 6.000000E+01  1.000000E+00  1.500000E+01
 7.000000E+01  1.000000E+00  1.500000E+01
 8.000000E+01  1.000000E+00  1.500000E+01
 9.000000E+01  1.000000E+00  1.500000E+01
 1.000000E+02  1.000000E+00  1.500000E+01
 0.000000E+00  0.000000E+00  2.000000E+01
 1.000000E+01  0.000000E+00  2.000000E+01
 2.000000E+01  0.000000E+00  2.000000E+01
 3.000000E+01  0.000000E+00  2.000000E+01
 4.000000E+01  0.000000E+00  2.000000E+01
 5.000000E+01  0.000000E+00  2.000000E+01
 6.000000E+01  0.000000E+00  2.000000E+01
 7.000000E+01  0.000000E+00  2.000000E+01
 8.000000E+01  0.000000E+00  2.000000E+01
 9.000000E+01  0.000000E+00  2.000000E+01
 1.000000E+02  0.000000E+00  2.000000E+01
 0.000000E+00  1.000000E+00  2.000000E+01
 1.000000E+01  1.000000E+00  2.000000E+01
 2.000000E+01  1.000000E+00  2.000000E+01
 3.000000E+01  1.000000E+00  2.000000E+01
 4.000000E+01  1.000000E+00  2.000000E+01
 5.000000E+01  1.000000E+00  2.000000E+01
 6.000000E+01  1.000000E+00  2.000000E+01
 7.000000E+01  1.000000E+00  2.000000E+01
 8.000000E+01  1.000000E+00  2.000000E+01
 9.000000E+01  1.000000E+00  2.000000E+01
 1.000000E+02  1.000000E+00  2.000000E+01
 0.000000E+00  0.000000E+00  2.500000E+01
 1.000000E+01  0.000000E+00  2.500000E+01
 2.000000E+01  0.000000E+00  2.500000E+01
 3.000000E+01  0.000000E+00  2.500000E+01
 4.000000E+01  0.000000E+00  2.500000E+01
 5.000000E+01  0.000000E+00  2.500000E+01
 6.000000E+01  0.000000E+00  2.500000E+01
 7.000000E+01  0.000000E+00  2.500000E+01
 8.000000E+01  0.000000E+00  2.500000E+01
 9.000000E+01  0.000000E+00  2.500000E+01
 1.000000E+02  0.000000E+00  2.500000E+01
 0.000000E+00  1.000000E+00  2.500000E+01
 1.000000E+01  1.000000E+00  2.500000E+01
 2.000000E+01  1.000000E+00  2.500000E+01
 3.000000E+01  1.000000E+00  2.500000E+01
 4.000000E+01  1.000000E+00  2.500000E+01
 5.000000E+01  1.000000E+00  2.500000E+01
 6.000000E+01  1.000000E+00  2.500000E+01
 7.000000E+01  1.000000E+00  2.500000E+01
 8.000000E+01  1.000000E+00  2.500000E+01
 9.000000E+01  1.000000E+00  2.500000E+01
 1.000000E+02  1.000000E+00  2.500000E+01
 0.000000E+00  0.000000E+00  3.000000E+01
 1.000000E+01  0.000000E+00  3.000000E+01
 2.000000E+01  0.000000E+00  3.000000E+01
 3.000000E+01  0.000000E+00  3.000000E+01
 4.000000E+01  0.000000E+00  3.000000E+01
 5.000000E+01  0.000000E+00  3.000000E+01
 6.000000E+01  0.000000E+00  3.000000E+01
 7.000000E+01  0.000000E+00  3.000000E+01
 8.000000E+01  0.000000E+00  3.000000E+01
 9.000000E+01  0.000000E+00  3.000000E+01
 1.000000E+02  0.000000E+00  3.000000E+01
 0.000000E+00  1.000000E+00  3.000000E+01
 1.000000E+01  1.000000E+00  3.000000E+01
 2.000000E+01  1.000000E+00  3.000000E+01
 3.000000E+01  1.000000E+00  3.000000E+01
 4.000000E+01  1.000000E+00  3.000000E+01
 5.000000E+01  1.000000E+00  3.000000E+01
 6.000000E+01  1.000000E+00  3.000000E+01
 7.000000E+01  1.000000E+00  3.000000E+01
 8.000000E+01  1.000000E+00  3.000000E+01
 9.000000E+01  1.000000E+00  3.000000E+01
 1.000000E+02  1.000000E+00  3.000000E+01
 0.000000E+00  0.000000E+00  3.500000E+01
 1.000000E+01  0.000000E+00  3.500000E+01
 2.000000E+01  0.000000E+00  3.500000E+01
 3.000000E+01  0.000000E+00  3.500000E+01
 4.000000E+01  0.000000E+00  3.500000E+01
 5.000000E+01  0.000000E+00  3.500000E+01
 6.000000E+01  0.000000E+00  3.500000E+01
 7.000000E+01  0.000000E+00  3.500000E+01
 8.000000E+01  0.000000E+00  3.500000E+01
 9.000000E+01  0.000000E+00  3.500000E+01
 1.000000E+02  0.000000E+00  3.500000E+01
 0.000000E+00  1.000000E+00  3.500000E+01
 1.000000E+01  1.000000E+00  3.500000E+01
 2.000000E+01  1.000000E+00  3.500000E+01
 3.000000E+01  1.000000E+00  3.500000E+01
 4.000000E+01  1.000000E+00  3.500000E+01
 5.000000E+01  1.000000E+00  3.500000E+01
 6.000000E+01  1.000000E+00  3.500000E+01
 7.000000E+01  1.000000E+00  3.500000E+01
 8.000000E+01  1.000000E+00  3.500000E+01
 9.000000E+01  1.000000E+00  3.500000E+01
 1.000000E+02  1.000000E+00  3.500000E+01
 0.000000E+00  0.000000E+00  4.000000E+01
 1.000000E+01  0.000000E+00  4.000000E+01
 2.000000E+01  0.000000E+00  4.000000E+01
 3.000000E+01  0.000000E+00  4.000000E+01
 4.000000E+01  0.000000E+00  4.000000E+01
 5.000000E+01  0.000000E+00  4.000000E+01
 6.000000E+01  0.000000E+00  4.000000E+01
 7.000000E+01  0.000000E+00  4.000000E+01
 8.000000E+01  0.000000E+00  4.000000E+01
 9.000000E+01  0.000000E+00  4.000000E+01
 1.000000E+02  0.000000E+00  4.000000E+01
 0.000000E+00  1.000000E+00  4.000000E+01
 1.000000E+01  1.000000E+00  4.000000E+01
 2.000000E+01  1.000000E+00  4.000000E+01
 3.000000E+01  1.000000E+00  4.000000E+01
 4.000000E+01  1.000000E+00  4.000000E+01
 5.000000E+01  1.000000E+00  4.000000E+01
 6.000000E+01  1.000000E+00  4.000000E+01
 7.000000E+01  1.000000E+00  4.000000E+01
 8.000000E+01  1.000000E+00  4.000000E+01
 9.000000E+01  1.000000E+00  4.000000E+01
 1.000000E+02  1.000000E+00  4.000000E+01
 0.000000E+00  0.000000E+00  4.500000E+01
 1.000000E+01  0.000000E+00  4.500000E+01
 2.000000E+01  0.000000E+00  4.500000E+01
 3.000000E+01  0.000000E+00  4.500000E+01
 4.000000E+01  0.000000E+00  4.500000E+01
 5.000000E+01  0.000000E+00  4.500000E+01
 6.000000E+01  0.000000E+00  4.500000E+01
 7.000000E+01  0.000000E+00  4.500000E+01
 8.000000E+01  0.000000E+00  4.500000E+01
 9.000000E+01  0.000000E+00  4.500000E+01
 1.000000E+02  0.000000E+00  4.500000E+01
 0.000000E+00  1.000000E+00  4.500000E+01
 1.000000E+01  1.000000E+00  4.500000E+01
 2.000000E+01  1.000000E+00  4.500000E+01
 3.000000E+01  1.000000E+00  4.500000E+01
 4.000000E+01  1.000000E+00  4.500000E+01
 5.000000E+01  1.000000E+00  4.500000E+01
 6.000000E+01  1.000000E+00  4.500000E+01
 7.000000E+01  1.000000E+00  4.500000E+01
 8.000000E+01  1.000000E+00  4.500000E+01
 9.000000E+01  1.000000E+00  4.500000E+01
 1.000000E+02  1.000000E+00  4.500000E+01
 0.000000E+00  0.000000E+00  5.000000E+01
 1.000000E+01  0.000000E+00  5.000000E+01
 2.000000E+01  0.000000E+00  5.000000E+01
 3.000000E+01  0.000000E+00  5.000000E+01
 4.000000E+01  0.000000E+00  5.000000E+01
 5.000000E+01  0.000000E+00  5.000000E+01
 6.000000E+01  0.000000E+00  5.000000E+01
 7.000000E+01  0.000000E+00  5.000000E+01
 8.000000E+01  0.000000E+00  5.000000E+01
 9.000000E+01  0.000000E+00  5.000000E+01
 1.000000E+02  0.000000E+00  5.000000E+01
 0.000000E+00  1.000000E+00  5.000000E+01
 1.000000E+01  1.000000E+00  5.000000E+01
 2.000000E+01  1.000000E+00  5.000000E+01
 3.000000E+01  1.000000E+00  5.000000E+01
[...]
CELL_DATA      200
SCALARS Porosity             float 1
LOOKUP_TABLE default
 4.377066E-01  4.377095E-01  4.377099E-01  4.377100E-01  4.377100E-01  4.377100E-01  4.377100E-01  4.377100E-01  4.377100E-01  4.377100E-01
 4.376790E-01  4.377050E-01  4.377093E-01  4.377099E-01  4.377100E-01  4.377100E-01  4.377100E-01  4.377100E-01  4.377100E-01  4.377100E-01
 4.375621E-01  4.376827E-01  4.377061E-01  4.377095E-01  4.377099E-01  4.377099E-01  4.377099E-01  4.377100E-01  4.377100E-01  4.377100E-01
 4.372456E-01  4.376072E-01  4.376936E-01  4.377080E-01  4.377098E-01  4.377099E-01  4.377099E-01  4.377099E-01  4.377100E-01  4.377100E-01
 4.367274E-01  4.374244E-01  4.376579E-01  4.377031E-01  4.377092E-01  4.377099E-01  4.377099E-01  4.377099E-01  4.377100E-01  4.377100E-01
 4.367117E-01  4.371238E-01  4.375828E-01  4.376916E-01  4.377079E-01  4.377098E-01  4.377099E-01  4.377099E-01  4.377099E-01  4.377099E-01
 4.389330E-01  4.369325E-01  4.374782E-01  4.376732E-01  4.377057E-01  4.377095E-01  4.377099E-01  4.377099E-01  4.377099E-01  4.377099E-01
 4.389337E-01  4.368764E-01  4.374250E-01  4.376608E-01  4.377040E-01  4.377094E-01  4.377099E-01  4.377099E-01  4.377099E-01  4.377099E-01
 4.389341E-01  4.368531E-01  4.373942E-01  4.376524E-01  4.377027E-01  4.377092E-01  4.377099E-01  4.377099E-01  4.377099E-01  4.377099E-01
 4.389342E-01  4.368438E-01  4.373798E-01  4.376481E-01  4.377020E-01  4.377091E-01  4.377099E-01  4.377099E-01  4.377099E-01  4.377099E-01
 4.389340E-01  4.368437E-01  4.373798E-01  4.376481E-01  4.377020E-01  4.377092E-01  4.377099E-01  4.377099E-01  4.377099E-01  4.377099E-01
 4.389334E-01  4.368529E-01  4.373942E-01  4.376524E-01  4.377027E-01  4.377092E-01  4.377099E-01  4.377099E-01  4.377099E-01  4.377099E-01
 4.389325E-01  4.368762E-01  4.374250E-01  4.376608E-01  4.377040E-01  4.377094E-01  4.377099E-01  4.377099E-01  4.377099E-01  4.377099E-01
 4.389315E-01  4.369322E-01  4.374782E-01  4.376732E-01  4.377057E-01  4.377096E-01  4.377099E-01  4.377099E-01  4.377099E-01  4.377099E-01
 4.367109E-01  4.371239E-01  4.375830E-01  4.376916E-01  4.377080E-01  4.377098E-01  4.377099E-01  4.377099E-01  4.377099E-01  4.377100E-01
 4.367275E-01  4.374246E-01  4.376581E-01  4.377031E-01  4.377093E-01  4.377099E-01  4.377099E-01  4.377099E-01  4.377100E-01  4.377100E-01
 4.372460E-01  4.376075E-01  4.376937E-01  4.377080E-01  4.377098E-01  4.377099E-01  4.377099E-01  4.377099E-01  4.377100E-01  4.377100E-01
 4.375625E-01  4.376829E-01  4.377062E-01  4.377096E-01  4.377099E-01  4.377099E-01  4.377099E-01  4.377100E-01  4.377100E-01  4.377100E-01
 4.376792E-01  4.377051E-01  4.377094E-01  4.377099E-01  4.377099E-01  4.377099E-01  4.377100E-01  4.377100E-01  4.377100E-01  4.377100E-01
 4.377066E-01  4.377095E-01  4.377099E-01  4.377100E-01  4.377100E-01  4.377100E-01  4.377100E-01  4.377100E-01  4.377100E-01  4.377100E-01


SCALARS Permeability         float 1
LOOKUP_TABLE default
 1.000000E-12  1.000000E-12  1.000000E-12  1.000000E-12  1.000000E-12  1.000000E-12  1.000000E-12  1.000000E-12  1.000000E-12  1.000000E-12
 1.000000E-12  1.000000E-12  1.000000E-12  1.000000E-12  1.000000E-12  1.000000E-12  1.000000E-12  1.000000E-12  1.000000E-12  1.000000E-12
 1.000000E-12  1.000000E-12  1.000000E-12  1.000000E-12  1.000000E-12  1.000000E-12  1.000000E-12  1.000000E-12  1.000000E-12  1.000000E-12
 1.000000E-12  1.000000E-12  1.000000E-12  1.000000E-12  1.000000E-12  1.000000E-12  1.000000E-12  1.000000E-12  1.000000E-12  1.000000E-12
 1.000000E-12  1.000000E-12  1.000000E-12  1.000000E-12  1.000000E-12  1.000000E-12  1.000000E-12  1.000000E-12  1.000000E-12  1.000000E-12
 1.000000E-12  1.000000E-12  1.000000E-12  1.000000E-12  1.000000E-12  1.000000E-12  1.000000E-12  1.000000E-12  1.000000E-12  1.000000E-12
 1.000000E-12  1.000000E-12  1.000000E-12  1.000000E-12  1.000000E-12  1.000000E-12  1.000000E-12  1.000000E-12  1.000000E-12  1.000000E-12
 1.000000E-12  1.000000E-12  1.000000E-12  1.000000E-12  1.000000E-12  1.000000E-12  1.000000E-12  1.000000E-12  1.000000E-12  1.000000E-12
 1.000000E-12  1.000000E-12  1.000000E-12  1.000000E-12  1.000000E-12  1.000000E-12  1.000000E-12  1.000000E-12  1.000000E-12  1.000000E-12
 1.000000E-12  1.000000E-12  1.000000E-12  1.000000E-12  1.000000E-12  1.000000E-12  1.000000E-12  1.000000E-12  1.000000E-12  1.000000E-12
 1.000000E-12  1.000000E-12  1.000000E-12  1.000000E-12  1.000000E-12  1.000000E-12  1.000000E-12  1.000000E-12  1.000000E-12  1.000000E-12
 1.000000E-12  1.000000E-12  1.000000E-12  1.000000E-12  1.000000E-12  1.000000E-12  1.000000E-12  1.000000E-12  1.000000E-12  1.000000E-12
 1.000000E-12  1.000000E-12  1.000000E-12  1.000000E-12  1.000000E-12  1.000000E-12  1.000000E-12  1.000000E-12  1.000000E-12  1.000000E-12
 1.000000E-12  1.000000E-12  1.000000E-12  1.000000E-12  1.000000E-12  1.000000E-12  1.000000E-12  1.000000E-12  1.000000E-12  1.000000E-12
 1.000000E-12  1.000000E-12  1.000000E-12  1.000000E-12  1.000000E-12  1.000000E-12  1.000000E-12  1.000000E-12  1.000000E-12  1.000000E-12
 1.000000E-12  1.000000E-12  1.000000E-12  1.000000E-12  1.000000E-12  1.000000E-12  1.000000E-12  1.000000E-12  1.000000E-12  1.000000E-12
 1.000000E-12  1.000000E-12  1.000000E-12  1.000000E-12  1.000000E-12  1.000000E-12  1.000000E-12  1.000000E-12  1.000000E-12  1.000000E-12
 1.000000E-12  1.000000E-12  1.000000E-12  1.000000E-12  1.000000E-12  1.000000E-12  1.000000E-12  1.000000E-12  1.000000E-12  1.000000E-12
 1.000000E-12  1.000000E-12  1.000000E-12  1.000000E-12  1.000000E-12  1.000000E-12  1.000000E-12  1.000000E-12  1.000000E-12  1.000000E-12
 1.000000E-12  1.000000E-12  1.000000E-12  1.000000E-12  1.000000E-12  1.000000E-12  1.000000E-12  1.000000E-12  1.000000E-12  1.000000E-12


SCALARS Liquid_Pressure      float 1
LOOKUP_TABLE default
 7.947503E+06  7.907832E+06  7.848852E+06  7.784994E+06  7.723503E+06  7.667130E+06  7.616439E+06  7.571091E+06  7.530467E+06  7.493926E+06
 7.922176E+06  7.875720E+06  7.811056E+06  7.743725E+06  7.680344E+06  7.622990E+06  7.571797E+06  7.526192E+06  7.485430E+06  7.448807E+06
 7.920077E+06  7.857420E+06  7.780529E+06  7.706138E+06  7.639034E+06  7.579778E+06  7.527620E+06  7.481521E+06  7.440497E+06  7.403717E+06
 7.949309E+06  7.854308E+06  7.756943E+06  7.671784E+06  7.599274E+06  7.537325E+06  7.483820E+06  7.437035E+06  7.395646E+06  7.358651E+06
 8.026052E+06  7.867820E+06  7.739435E+06  7.639903E+06  7.560612E+06  7.495388E+06  7.440268E+06  7.392669E+06  7.350850E+06  7.313601E+06
 8.181951E+06  7.897763E+06  7.726113E+06  7.609352E+06  7.522450E+06  7.453662E+06  7.396812E+06  7.348347E+06  7.306075E+06  7.268557E+06
 8.480094E+06  7.937580E+06  7.713498E+06  7.578614E+06  7.484087E+06  7.411809E+06  7.353286E+06  7.303990E+06  7.261283E+06  7.223510E+06
 8.628354E+06  7.961754E+06  7.696548E+06  7.545988E+06  7.444801E+06  7.369492E+06  7.309527E+06  7.259520E+06  7.216441E+06  7.178450E+06
 8.688658E+06  7.963354E+06  7.671746E+06  7.510018E+06  7.403953E+06  7.326418E+06  7.265396E+06  7.214868E+06  7.171518E+06  7.133368E+06
 8.690311E+06  7.941421E+06  7.637170E+06  7.469706E+06  7.361078E+06  7.282367E+06  7.220788E+06  7.169985E+06  7.126493E+06  7.088259E+06
 8.645101E+06  7.896249E+06  7.592013E+06  7.424556E+06  7.315933E+06  7.237225E+06  7.175647E+06  7.124846E+06  7.081354E+06  7.043120E+06
 8.553032E+06  7.827841E+06  7.536276E+06  7.374569E+06  7.268518E+06  7.190992E+06  7.129975E+06  7.079450E+06  7.036101E+06  6.997950E+06
 8.402334E+06  7.735907E+06  7.470767E+06  7.320242E+06  7.219077E+06  7.143783E+06  7.083827E+06  7.033824E+06  6.990746E+06  6.952753E+06
 8.163733E+06  7.621416E+06  7.397413E+06  7.262574E+06  7.168075E+06  7.095816E+06  7.037305E+06  6.988016E+06  6.945310E+06  6.907535E+06
 7.775349E+06  7.491302E+06  7.319731E+06  7.203019E+06  7.116151E+06  7.047386E+06  6.990551E+06  6.942095E+06  6.899823E+06  6.862303E+06
 7.529210E+06  7.371076E+06  7.242762E+06  7.143283E+06  7.064029E+06  6.998831E+06  6.943728E+06  6.896137E+06  6.854321E+06  6.817068E+06
 7.362220E+06  7.267287E+06  7.169986E+06  7.084879E+06  7.012409E+06  6.950489E+06  6.897001E+06  6.850225E+06  6.808838E+06  6.771839E+06
 7.242730E+06  7.180124E+06  7.103290E+06  7.028950E+06  6.961887E+06  6.902662E+06  6.850524E+06  6.804434E+06  6.763410E+06  6.726626E+06
 7.154561E+06  7.108146E+06  7.043536E+06  6.976255E+06  6.912917E+06  6.855595E+06  6.804421E+06  6.758825E+06  6.718064E+06  6.681437E+06
 7.089608E+06  7.049975E+06  6.991048E+06  6.927243E+06  6.865795E+06  6.809455E+06  6.758783E+06  6.713446E+06  6.672823E+06  6.636278E+06


SCALARS Temperature          float 1
LOOKUP_TABLE default
 1.500808E+02  1.500870E+02  1.500936E+02  1.500959E+02  1.500909E+02  1.500794E+02  1.500651E+02  1.500514E+02  1.500396E+02  1.500298E+02
 1.500849E+02  1.500935E+02  1.501037E+02  1.501118E+02  1.501122E+02  1.501013E+02  1.500823E+02  1.500618E+02  1.500446E+02  1.500317E+02
 1.500855E+02  1.500967E+02  1.501095E+02  1.501207E+02  1.501259E+02  1.501190E+02  1.500995E+02  1.500744E+02  1.500517E+02  1.500349E+02
 1.500820E+02  1.500980E+02  1.501141E+02  1.501277E+02  1.501363E+02  1.501337E+02  1.501157E+02  1.500878E+02  1.500602E+02  1.500392E+02
 1.500722E+02  1.500972E+02  1.501182E+02  1.501344E+02  1.501455E+02  1.501464E+02  1.501308E+02  1.501015E+02  1.500697E+02  1.500443E+02
 1.500512E+02  1.500950E+02  1.501226E+02  1.501416E+02  1.501547E+02  1.501583E+02  1.501450E+02  1.501150E+02  1.500795E+02  1.500499E+02
 1.500084E+02  1.500930E+02  1.501284E+02  1.501501E+02  1.501646E+02  1.501700E+02  1.501585E+02  1.501280E+02  1.500893E+02  1.500557E+02
 1.500028E+02  1.501000E+02  1.501383E+02  1.501605E+02  1.501752E+02  1.501815E+02  1.501711E+02  1.501401E+02  1.500985E+02  1.500612E+02
 1.500010E+02  1.501049E+02  1.501456E+02  1.501687E+02  1.501837E+02  1.501906E+02  1.501810E+02  1.501496E+02  1.501058E+02  1.500656E+02
 1.500010E+02  1.501084E+02  1.501509E+02  1.501747E+02  1.501901E+02  1.501974E+02  1.501882E+02  1.501563E+02  1.501109E+02  1.500687E+02
 1.500010E+02  1.501084E+02  1.501509E+02  1.501747E+02  1.501901E+02  1.501974E+02  1.501882E+02  1.501564E+02  1.501109E+02  1.500687E+02
 1.500024E+02  1.501081E+02  1.501504E+02  1.501744E+02  1.501901E+02  1.501973E+02  1.501874E+02  1.501549E+02  1.501095E+02  1.500678E+02
 1.500057E+02  1.501069E+02  1.501482E+02  1.501725E+02  1.501884E+02  1.501951E+02  1.501840E+02  1.501507E+02  1.501057E+02  1.500653E+02
 1.500135E+02  1.501045E+02  1.501445E+02  1.501689E+02  1.501849E+02  1.501908E+02  1.501779E+02  1.501436E+02  1.500997E+02  1.500615E+02
 1.500695E+02  1.501174E+02  1.501483E+02  1.501697E+02  1.501841E+02  1.501876E+02  1.501715E+02  1.501356E+02  1.500929E+02  1.500571E+02
 1.501037E+02  1.501318E+02  1.501552E+02  1.501731E+02  1.501851E+02  1.501849E+02  1.501643E+02  1.501264E+02  1.500852E+02  1.500524E+02
 1.501267E+02  1.501451E+02  1.501630E+02  1.501778E+02  1.501865E+02  1.501809E+02  1.501549E+02  1.501155E+02  1.500766E+02  1.500474E+02
 1.501434E+02  1.501566E+02  1.501707E+02  1.501825E+02  1.501862E+02  1.501731E+02  1.501416E+02  1.501021E+02  1.500672E+02  1.500423E+02
 1.501560E+02  1.501661E+02  1.501771E+02  1.501843E+02  1.501796E+02  1.501574E+02  1.501224E+02  1.500862E+02  1.500572E+02  1.500374E+02
 1.501647E+02  1.501710E+02  1.501754E+02  1.501713E+02  1.501541E+02  1.501260E+02  1.500947E+02  1.500677E+02  1.500474E+02  1.500331E+02


SCALARS pH                   float 1
LOOKUP_TABLE default
 6.145611E+00  6.145636E+00  6.145659E+00  6.145672E+00  6.145656E+00  6.145583E+00  6.145425E+00  6.145184E+00  6.144905E+00  6.144649E+00
 6.145589E+00  6.145617E+00  6.145646E+00  6.145671E+00  6.145683E+00  6.145659E+00  6.145563E+00  6.145370E+00  6.145097E+00  6.144803E+00
 6.145553E+00  6.145606E+00  6.145637E+00  6.145666E+00  6.145688E+00  6.145684E+00  6.145622E+00  6.145468E+00  6.145217E+00  6.144915E+00
 6.145242E+00  6.145582E+00  6.145630E+00  6.145663E+00  6.145689E+00  6.145696E+00  6.145657E+00  6.145531E+00  6.145304E+00  6.145004E+00
 6.141808E+00  6.145436E+00  6.145620E+00  6.145661E+00  6.145691E+00  6.145706E+00  6.145680E+00  6.145576E+00  6.145369E+00  6.145075E+00
 6.114703E+00  6.144170E+00  6.145578E+00  6.145661E+00  6.145696E+00  6.145715E+00  6.145699E+00  6.145610E+00  6.145419E+00  6.145132E+00
 5.977360E+00  6.136701E+00  6.145346E+00  6.145662E+00  6.145704E+00  6.145727E+00  6.145717E+00  6.145638E+00  6.145458E+00  6.145177E+00
 5.977346E+00  6.134846E+00  6.145250E+00  6.145673E+00  6.145718E+00  6.145742E+00  6.145735E+00  6.145663E+00  6.145490E+00  6.145212E+00
 5.977346E+00  6.133977E+00  6.145194E+00  6.145684E+00  6.145731E+00  6.145755E+00  6.145750E+00  6.145681E+00  6.145513E+00  6.145236E+00
 5.977347E+00  6.133627E+00  6.145169E+00  6.145690E+00  6.145739E+00  6.145764E+00  6.145760E+00  6.145692E+00  6.145525E+00  6.145249E+00
 5.977344E+00  6.133622E+00  6.145165E+00  6.145688E+00  6.145737E+00  6.145763E+00  6.145759E+00  6.145692E+00  6.145525E+00  6.145249E+00
 5.977341E+00  6.133968E+00  6.145189E+00  6.145682E+00  6.145731E+00  6.145757E+00  6.145752E+00  6.145682E+00  6.145512E+00  6.145234E+00
 5.977342E+00  6.134835E+00  6.145245E+00  6.145674E+00  6.145722E+00  6.145747E+00  6.145740E+00  6.145665E+00  6.145489E+00  6.145208E+00
 5.977359E+00  6.136691E+00  6.145344E+00  6.145666E+00  6.145712E+00  6.145737E+00  6.145725E+00  6.145642E+00  6.145457E+00  6.145172E+00
 6.114712E+00  6.144171E+00  6.145585E+00  6.145674E+00  6.145712E+00  6.145732E+00  6.145711E+00  6.145616E+00  6.145417E+00  6.145126E+00
 6.141821E+00  6.145450E+00  6.145640E+00  6.145685E+00  6.145717E+00  6.145730E+00  6.145697E+00  6.145583E+00  6.145367E+00  6.145068E+00
 6.145265E+00  6.145610E+00  6.145663E+00  6.145699E+00  6.145726E+00  6.145728E+00  6.145677E+00  6.145538E+00  6.145301E+00  6.144996E+00
 6.145589E+00  6.145647E+00  6.145683E+00  6.145714E+00  6.145733E+00  6.145719E+00  6.145641E+00  6.145472E+00  6.145211E+00  6.144906E+00
 6.145639E+00  6.145672E+00  6.145702E+00  6.145726E+00  6.145730E+00  6.145689E+00  6.145574E+00  6.145366E+00  6.145086E+00  6.144793E+00
 6.145669E+00  6.145696E+00  6.145717E+00  6.145719E+00  6.145686E+00  6.145592E+00  6.145417E+00  6.145168E+00  6.144889E+00  6.144637E+00


SCALARS Total_H+             float 1
LOOKUP_TABLE default
-3.047645E-03 -3.046497E-03 -3.045185E-03 -3.043877E-03 -3.042793E-03 -3.042163E-03 -3.042194E-03 -3.042944E-03 -3.044192E-03 -3.045568E-03
-3.048853E-03 -3.047764E-03 -3.046440E-03 -3.044972E-03 -3.043582E-03 -3.042542E-03 -3.042101E-03 -3.042424E-03 -3.043454E-03 -3.044876E-03
-3.049585E-03 -3.048438E-03 -3.047122E-03 -3.045634E-03 -3.044113E-03 -3.042851E-03 -3.042143E-03 -3.042193E-03 -3.043021E-03 -3.044395E-03
-3.049154E-03 -3.048973E-03 -3.047574E-03 -3.046073E-03 -3.044491E-03 -3.043080E-03 -3.042181E-03 -3.042036E-03 -3.042703E-03 -3.044015E-03
-3.031401E-03 -3.049003E-03 -3.047908E-03 -3.046353E-03 -3.044736E-03 -3.043225E-03 -3.042182E-03 -3.041893E-03 -3.042442E-03 -3.043701E-03
-2.880460E-03 -3.042859E-03 -3.048023E-03 -3.046492E-03 -3.044843E-03 -3.043268E-03 -3.042119E-03 -3.041729E-03 -3.042203E-03 -3.043431E-03
-2.210205E-03 -3.000922E-03 -3.046938E-03 -3.046457E-03 -3.044799E-03 -3.043188E-03 -3.041971E-03 -3.041521E-03 -3.041961E-03 -3.043189E-03
-2.210133E-03 -2.990173E-03 -3.046141E-03 -3.046224E-03 -3.044600E-03 -3.042992E-03 -3.041744E-03 -3.041269E-03 -3.041713E-03 -3.042969E-03
-2.210068E-03 -2.985034E-03 -3.045581E-03 -3.046008E-03 -3.044406E-03 -3.042802E-03 -3.041537E-03 -3.041052E-03 -3.041509E-03 -3.042799E-03
-2.210049E-03 -2.982925E-03 -3.045265E-03 -3.045839E-03 -3.044242E-03 -3.042637E-03 -3.041366E-03 -3.040885E-03 -3.041366E-03 -3.042690E-03
-2.210092E-03 -2.982959E-03 -3.045289E-03 -3.045856E-03 -3.044253E-03 -3.042644E-03 -3.041371E-03 -3.040888E-03 -3.041368E-03 -3.042690E-03
-2.210178E-03 -2.985040E-03 -3.045502E-03 -3.045876E-03 -3.044242E-03 -3.042622E-03 -3.041364E-03 -3.040914E-03 -3.041421E-03 -3.042758E-03
-2.210303E-03 -2.990128E-03 -3.045938E-03 -3.045926E-03 -3.044246E-03 -3.042614E-03 -3.041389E-03 -3.040991E-03 -3.041540E-03 -3.042891E-03
-2.210418E-03 -3.000777E-03 -3.046569E-03 -3.045962E-03 -3.044231E-03 -3.042597E-03 -3.041429E-03 -3.041107E-03 -3.041710E-03 -3.043078E-03
-2.880276E-03 -3.042352E-03 -3.047344E-03 -3.045706E-03 -3.043996E-03 -3.042418E-03 -3.041366E-03 -3.041176E-03 -3.041879E-03 -3.043291E-03
-3.030692E-03 -3.048082E-03 -3.046858E-03 -3.045220E-03 -3.043564E-03 -3.042093E-03 -3.041222E-03 -3.041221E-03 -3.042068E-03 -3.043546E-03
-3.047954E-03 -3.047625E-03 -3.046128E-03 -3.044568E-03 -3.042980E-03 -3.041679E-03 -3.041060E-03 -3.041300E-03 -3.042319E-03 -3.043867E-03
-3.047920E-03 -3.046661E-03 -3.045274E-03 -3.043755E-03 -3.042289E-03 -3.041255E-03 -3.040959E-03 -3.041479E-03 -3.042680E-03 -3.044277E-03
-3.046740E-03 -3.045570E-03 -3.044207E-03 -3.042771E-03 -3.041569E-03 -3.040932E-03 -3.041030E-03 -3.041852E-03 -3.043217E-03 -3.044810E-03
-3.045135E-03 -3.043972E-03 -3.042736E-03 -3.041660E-03 -3.041005E-03 -3.040939E-03 -3.041514E-03 -3.042653E-03 -3.044109E-03 -3.045566E-03


SCALARS Total_SiO2(aq)       float 1
LOOKUP_TABLE default
 1.040226E-02  1.040003E-02  1.040017E-02  1.040033E-02  1.039991E-02  1.039894E-02  1.039771E-02  1.039652E-02  1.039549E-02  1.039464E-02
 1.042862E-02  1.040480E-02  1.040158E-02  1.040174E-02  1.040174E-02  1.040083E-02  1.039921E-02  1.039744E-02  1.039594E-02  1.039482E-02
 1.053820E-02  1.042612E-02  1.040513E-02  1.040284E-02  1.040293E-02  1.040235E-02  1.040070E-02  1.039854E-02  1.039657E-02  1.039511E-02
 1.083924E-02  1.049705E-02  1.041733E-02  1.040492E-02  1.040396E-02  1.040361E-02  1.040209E-02  1.039971E-02  1.039732E-02  1.039550E-02
 1.142172E-02  1.067025E-02  1.045119E-02  1.041013E-02  1.040524E-02  1.040473E-02  1.040339E-02  1.040089E-02  1.039814E-02  1.039595E-02
 1.223994E-02  1.098604E-02  1.052240E-02  1.042155E-02  1.040725E-02  1.040585E-02  1.040461E-02  1.040205E-02  1.039900E-02  1.039645E-02
 1.307676E-02  1.139793E-02  1.062685E-02  1.043958E-02  1.041019E-02  1.040704E-02  1.040578E-02  1.040317E-02  1.039985E-02  1.039695E-02
 1.307576E-02  1.150795E-02  1.068033E-02  1.045211E-02  1.041273E-02  1.040819E-02  1.040687E-02  1.040422E-02  1.040065E-02  1.039744E-02
 1.307520E-02  1.155692E-02  1.071158E-02  1.046073E-02  1.041467E-02  1.040910E-02  1.040773E-02  1.040504E-02  1.040128E-02  1.039783E-02
 1.307509E-02  1.157677E-02  1.072631E-02  1.046530E-02  1.041588E-02  1.040975E-02  1.040835E-02  1.040561E-02  1.040172E-02  1.039810E-02
 1.307533E-02  1.157683E-02  1.072631E-02  1.046529E-02  1.041587E-02  1.040975E-02  1.040835E-02  1.040562E-02  1.040173E-02  1.039810E-02
 1.307598E-02  1.155734E-02  1.071196E-02  1.046118E-02  1.041520E-02  1.040966E-02  1.040827E-02  1.040550E-02  1.040160E-02  1.039802E-02
 1.307708E-02  1.150873E-02  1.068112E-02  1.045307E-02  1.041382E-02  1.040935E-02  1.040798E-02  1.040513E-02  1.040128E-02  1.039780E-02
 1.307854E-02  1.139907E-02  1.062811E-02  1.044110E-02  1.041189E-02  1.040882E-02  1.040744E-02  1.040452E-02  1.040076E-02  1.039746E-02
 1.224181E-02  1.098779E-02  1.052443E-02  1.042385E-02  1.040972E-02  1.040835E-02  1.040688E-02  1.040383E-02  1.040016E-02  1.039708E-02
 1.142414E-02  1.067288E-02  1.045415E-02  1.041335E-02  1.040859E-02  1.040802E-02  1.040627E-02  1.040305E-02  1.039949E-02  1.039666E-02
 1.084261E-02  1.050075E-02  1.042134E-02  1.040913E-02  1.040823E-02  1.040765E-02  1.040548E-02  1.040211E-02  1.039875E-02  1.039622E-02
 1.054277E-02  1.043099E-02  1.041024E-02  1.040807E-02  1.040809E-02  1.040700E-02  1.040434E-02  1.040096E-02  1.039792E-02  1.039576E-02
 1.043446E-02  1.041087E-02  1.040779E-02  1.040793E-02  1.040753E-02  1.040568E-02  1.040270E-02  1.039957E-02  1.039705E-02  1.039532E-02