# vtk DataFile Version 2.0
PFLOTRAN output
ASCII
DATASET UNSTRUCTURED_GRID
POINTS          462 float
 0.000000E+00  0.000000E+00  0.000000E+00
 2.000000E+03  0.000000E+00  0.000000E+00
 4.000000E+03  0.000000E+00  0.000000E+00
 6.000000E+03  0.000000E+00  0.000000E+00
 8.000000E+03  0.000000E+00  0.000000E+00
 1.000000E+04  0.000000E+00  0.000000E+00
 1.200000E+04  0.000000E+00  0.000000E+00
 1.400000E+04  0.000000E+00  0.000000E+00
 1.600000E+04  0.000000E+00  0.000000E+00
 1.800000E+04  0.000000E+00  0.000000E+00
 2.000000E+04  0.000000E+00  0.000000E+00
 0.000000E+00  1.000000E+00  0.000000E+00
 2.000000E+03  1.000000E+00  0.000000E+00
 4.000000E+03  1.000000E+00  0.000000E+00
 6.000000E+03  1.000000E+00  0.000000E+00
 8.000000E+03  1.000000E+00  0.000000E+00
 1.000000E+04  1.000000E+00  0.000000E+00
 1.200000E+04  1.000000E+00  0.000000E+00
 1.400000E+04  1.000000E+00  0.000000E+00
 1.600000E+04  1.000000E+00  0.000000E+00
 1.800000E+04  1.000000E+00  0.000000E+00
 2.000000E+04  1.000000E+00  0.000000E+00
 0.000000E+00  0.000000E+00  5.000000E+00
 2.000000E+03  0.000000E+00  5.000000E+00
 4.000000E+03  0.000000E+00  5.000000E+00
 6.000000E+03  0.000000E+00  5.000000E+00
 8.000000E+03  0.000000E+00  5.000000E+00
 1.000000E+04  0.000000E+00  5.000000E+00
 1.200000E+04  0.000000E+00  5.000000E+00
 1.400000E+04  0.000000E+00  5.000000E+00
 1.600000E+04  0.000000E+00  5.000000E+00
 1.800000E+04  0.000000E+00  5.000000E+00
 2.000000E+04  0.000000E+00  5.000000E+00
 0.000000E+00  1.000000E+00  5.000000E+00
 2.000000E+03  1.000000E+00  5.000000E+00
 4.000000E+03  1.000000E+00  5.000000E+00
 6.000000E+03  1.000000E+00  5.000000E+00
 8.000000E+03  1.000000E+00  5.000000E+00
 1.000000E+04  1.000000E+00  5.000000E+00
 1.200000E+04  1.000000E+00  5.000000E+00
 1.400000E+04  1.000000E+00  5.000000E+00
 1.600000E+04  1.000000E+00  5.000000E+00
 1.800000E+04  1.000000E+00  5.000000E+00
 2.000000E+04  1.000000E+00  5.000000E+00
 0.000000E+00  0.000000E+00  1.000000E+01
 2.000000E+03  0.000000E+00  1.000000E+01
 4.000000E+03  0.000000E+00  1.000000E+01
 6.000000E+03  0.000000E+00  1.000000E+01
 8.000000E+03  0.000000E+00  1.000000E+01
 1.000000E+04  0.000000E+00  1.000000E+01
 1.200000E+04  0.000000E+00  1.000000E+01
 1.400000E+04  0.000000E+00  1.000000E+01
 1.600000E+04  0.000000E+00  1.000000E+01
 1.800000E+04  0.000000E+00  1.000000E+01
 2.000000E+04  0.000000E+00  1.000000E+01
 0.000000E+00  1.000000E+00  1.000000E+01
 2.000000E+03  1.000000E+00  1.000000E+01
 4.000000E+03  1.000000E+00  1.000000E+01
 6.000000E+03  1.000000E+00  1.000000E+01
 8.000000E+03  1.000000E+00  1.000000E+01
 1.000000E+04  1.000000E+00  1.000000E+01
 1.200000E+04  1.000000E+00  1.000000E+01
 1.400000E+04  1.000000E+00  1.000000E+01
 1.600000E+04  1.000000E+00  1.000000E+01
 1.800000E+04  1.000000E+00  1.000000E+01
 2.000000E+04  1.000000E+00  1.000000E+01
 0.000000E+00  0.000000E+00  1.500000E+01
 2.000000E+03  0.000000E+00  1.500000E+01
 4.000000E+03  0.000000E+00  1.500000E+01
 6.000000E+03  0.000000E+00  1.500000E+01
 8.000000E+03  0.000000E+00  1.500000E+01
 1.000000E+04  0.000000E+00  1.500000E+01
 1.200000E+04  0.000000E+00  1.500000E+01
 1.400000E+04  0.000000E+00  1.500000E+01
 1.600000E+04  0.000000E+00  1.500000E+01
 1.800000E+04  0.000000E+00  1.500000E+01
 2.000000E+04  0.000000E+00  1.500000E+01
 0.000000E+00  1.000000E+00  1.500000E+01
 2.000000E+03  1.000000E+00  1.500000E+01
 4.000000E+03  1.000000E+00  1.500000E+01
 6.000000E+03  1.000000E+00  1.500000E+01
 8.000000E+03  1.000000E+00  1.500000E+01
 1.000000E+04  1.000000E+00  1.500000E+01
 1.200000E+04  1.000000E+00  1.500000E+01
 1.400000E+04  1.000000E+00  1.500000E+01
 1.600000E+04  1.000000E+00  1.500000E+01
 1.800000E+04  1.000000E+00  1.500000E+01
 2.000000E+04  1.000000E+00  1.500000E+01
 0.000000E+00  0.000000E+00  2.000000E+01
 2.000000E+03  0.000000E+00  2.000000E+01
 4.000000E+03  0.000000E+00  2.000000E+01
 6.000000E+03  0.000000E+00  2.000000E+01
 8.000000E+03  0.000000E+00  2.000000E+01
 1.000000E+04  0.000000E+00  2.000000E+01
 1.200000E+04  0.000000E+00  2.000000E+01
 1.400000E+04  0.000000E+00  2.000000E+01
 1.600000E+04  0.000000E+00  2.000000E+01
 1.800000E+04  0.000000E+00  2.000000E+01
 2.000000E+04  0.000000E+00  2.000000E+01
 0.000000E+00  1.000000E+00  2.000000E+01
 2.000000E+03  1.000000E+00  2.000000E+01
 4.000000E+03  1.000000E+00  2.000000E+01
 6.000000E+03  1.000000E+00  2.000000E+01
 8.000000E+03  1.000000E+00  2.000000E+01
 1.000000E+04  1.000000E+00  2.000000E+01
 1.200000E+04  1.000000E+00  2.000000E+01
 1.400000E+04  1.000000E+00  2.000000E+01
 1.600000E+04  1.000000E+00  2.000000E+01
 1.800000E+04  1.000000E+00  2.000000E+01
 2.000000E+04  1.000000E+00  2.000000E+01
 0.000000E+00  0.000000E+00  2.500000E+01
 2.000000E+03  0.000000E+00  2.500000E+01
 4.000000E+03  0.000000E+00  2.500000E+01
 6.000000E+03  0.000000E+00  2.500000E+01
 8.000000E+03  0.000000E+00  2.500000E+01
 1.000000E+04  0.000000E+00  2.500000E+01
 1.200000E+04  0.000000E+00  2.500000E+01
 1.400000E+04  0.000000E+00  2.500000E+01
 1.600000E+04  0.000000E+00  2.500000E+01
 1.800000E+04  0.000000E+00  2.500000E+01
 2.000000E+04  0.000000E+00  2.500000E+01
 0.000000E+00  1.000000E+00  2.500000E+01
 2.000000E+03  1.000000E+00  2.500000E+01
 4.000000E+03  1.000000E+00  2.500000E+01
 6.000000E+03  1.000000E+00  2.500000E+01
 8.000000E+03  1.000000E+00  2.500000E+01
 1.000000E+04  1.000000E+00  2.500000E+01
 1.200000E+04  1.000000E+00  2.500000E+01
 1.400000E+04  1.000000E+00  2.500000E+01
 1.600000E+04  1.000000E+00  2.500000E+01
 1.800000E+04  1.000000E+00  2.500000E+01
 2.000000E+04  1.000000E+00  2.500000E+01
 0.000000E+00  0.000000E+00  3.000000E+01
 2.000000E+03  0.000000E+00  3.000000E+01
 4.000000E+03  0.000000E+00  3.000000E+01
 6.000000E+03  0.000000E+00  3.000000E+01
 8.000000E+03  0.000000E+00  3.000000E+01
 1.000000E+04  0.000000E+00  3.000000E+01
 1.200000E+04  0.000000E+00  3.000000E+01
 1.400000E+04  0.000000E+00  3.000000E+01
 1.600000E+04  0.000000E+00  3.000000E+01
 1.800000E+04  0.000000E+00  3.000000E+01
 2.000000E+04  0.000000E+00  3.000000E+01
 0.000000E+00  1.000000E+00  3.000000E+01
 2.000000E+03  1.000000E+00  3.000000E+01
 4.000000E+03  1.000000E+00  3.000000E+01
 6.000000E+03  1.000000E+00  3.000000E+01
 8.000000E+03  1.000000E+00  3.000000E+01
 1.000000E+04  1.000000E+00  3.000000E+01
 1.200000E+04  1.000000E+00  3.000000E+01
 1.400000E+04  1.000000E+00  3.000000E+01
 1.600000E+04  1.000000E+00  3.000000E+01
 1.800000E+04  1.000000E+00  3.000000E+01
 2.000000E+04  1.000000E+00  3.000000E+01
 0.000000E+00  0.000000E+00  3.500000E+01
 2.000000E+03  0.000000E+00  3.500000E+01
 4.000000E+03  0.000000E+00  3.500000E+01
 6.000000E+03  0.000000E+00  3.500000E+01
 8.000000E+03  0.000000E+00  3.500000E+01
 1.000000E+04  0.000000E+00  3.500000E+01
 1.200000E+04  0.000000E+00  3.500000E+01
 1.400000E+04  0.000000E+00  3.500000E+01
 1.600000E+04  0.000000E+00  3.500000E+01
 1.800000E+04  0.000000E+00  3.500000E+01
 2.000000E+04  0.000000E+00  3.500000E+01
 0.000000E+00  1.000000E+00  3.500000E+01
 2.000000E+03  1.000000E+00  3.500000E+01
 4.000000E+03  1.000000E+00  3.500000E+01
 6.000000E+03  1.000000E+00  3.500000E+01
 8.000000E+03  1.000000E+00  3.500000E+01
 1.000000E+04  1.000000E+00  3.500000E+01
 1.200000E+04  1.000000E+00  3.500000E+01
 1.400000E+04  1.000000E+00  3.500000E+01
 1.600000E+04  1.000000E+00  3.500000E+01
 1.800000E+04  1.000000E+00  3.500000E+01
 2.000000E+04  1.000000E+00  3.500000E+01
 0.000000E+00  0.000000E+00  4.000000E+01
 2.000000E+03  0.000000E+00  4.000000E+01
 4.000000E+03  0.000000E+00  4.000000E+01
 6.000000E+03  0.000000E+00  4.000000E+01
 8.000000E+03  0.000000E+00  4.000000E+01
 1.000000E+04  0.000000E+00  4.000000E+01
 1.200000E+04  0.000000E+00  4.000000E+01
 1.400000E+04  0.000000E+00  4.000000E+01
 1.600000E+04  0.000000E+00  4.000000E+01
 1.800000E+04  0.000000E+00  4.000000E+01
 2.000000E+04  0.000000E+00  4.000000E+01
 0.000000E+00  1.000000E+00  4.000000E+01
 2.000000E+03  1.000000E+00  4.000000E+01
 4.000000E+03  1.000000E+00  4.000000E+01
 6.000000E+03  1.000000E+00  4.000000E+01
 8.000000E+03  1.000000E+00  4.000000E+01
 1.000000E+04  1.000000E+00  4.000000E+01
 1.200000E+04  1.000000E+00  4.000000E+01
 1.400000E+04  1.000000E+00  4.000000E+01
 1.600000E+04  1.000000E+00  4.000000E+01
 1.800000E+04  1.000000E+00  4.000000E+01
 2.000000E+04  1.000000E+00  4.000000E+01
 0.000000E+00  0.000000E+00  4.500000E+01
 2.000000E+03  0.000000E+00  4.500000E+01
 4.000000E+03  0.000000E+00  4.500000E+01
 6.000000E+03  0.000000E+00  4.500000E+01
 8.000000E+03  0.000000E+00  4.500000E+01
 1.000000E+04  0.000000E+00  4.500000E+01
 1.200000E+04  0.000000E+00  4.500000E+01
 1.400000E+04  0.000000E+00  4.500000E+01
 1.600000E+04  0.000000E+00  4.500000E+01
 1.800000E+04  0.000000E+00  4.500000E+01
 2.000000E+04  0.000000E+00  4.500000E+01
 0.000000E+00  1.000000E+00  4.500000E+01
 2.000000E+03  1.000000E+00  4.500000E+01
 4.000000E+03  1.000000E+00  4.500000E+01
 6.000000E+03  1.000000E+00  4.500000E+01
 8.000000E+03  1.000000E+00  4.500000E+01
 1.000000E+04  1.000000E+00  4.500000E+01
 1.200000E+04  1.000000E+00  4.500000E+01
 1.400000E+04  1.000000E+00  4.500000E+01
 1.600000E+04  1.000000E+00  4.500000E+01
 1.800000E+04  1.000000E+00  4.500000E+01
 2.000000E+04  1.000000E+00  4.500000E+01
 0.000000E+00  0.000000E+00  5.000000E+01
 2.000000E+03  0.000000E+00  5.000000E+01
 4.000000E+03  0.000000E+00  5.000000E+01
 6.000000E+03  0.000000E+00  5.000000E+01
 8.000000E+03  0.000000E+00  5.000000E+01
 1.000000E+04  0.000000E+00  5.000000E+01
 1.200000E+04  0.000000E+00  5.000000E+01
 1.400000E+04  0.000000E+00  5.000000E+01
 1.600000E+04  0.000000E+00  5.000000E+01
 1.800000E+04  0.000000E+00  5.000000E+01
 2.000000E+04  0.000000E+00  5.000000E+01
 0.000000E+00  1.000000E+00  5.000000E+01
 2.000000E+03  1.000000E+00  5.000000E+01
 4.000000E+03  1.000000E+00  5.000000E+01
 6.000000E+03  1.000000E+00  5.000000E+01
[...]
CELL_DATA      200
SCALARS Porosity             float 1
LOOKUP_TABLE default
 4.377100E-01  4.377100E-01  4.377099E-01  4.377099E-01  4.377099E-01  4.377099E-01  4.377099E-01  4.377099E-01  4.377099E-01  4.377099E-01
 4.377100E-01  4.377100E-01  4.377099E-01  4.377099E-01  4.377099E-01  4.377099E-01  4.377099E-01  4.377099E-01  4.377099E-01  4.377099E-01
 4.377100E-01  4.377100E-01  4.377099E-01  4.377099E-01  4.377099E-01  4.377099E-01  4.377099E-01  4.377099E-01  4.377099E-01  4.377099E-01
 4.377100E-01  4.377100E-01  4.377099E-01  4.377099E-01  4.377099E-01  4.377099E-01  4.377099E-01  4.377099E-01  4.377099E-01  4.377099E-01
 4.377100E-01  4.377100E-01  4.377099E-01  4.377099E-01  4.377099E-01  4.377099E-01  4.377099E-01  4.377099E-01  4.377099E-01  4.377099E-01
 4.377100E-01  4.377100E-01  4.377099E-01  4.377099E-01  4.377099E-01  4.377099E-01  4.377099E-01  4.377099E-01  4.377099E-01  4.377099E-01
 4.377097E-01  4.377100E-01  4.377099E-01  4.377099E-01  4.377099E-01  4.377099E-01  4.377099E-01  4.377099E-01  4.377099E-01  4.377099E-01
 4.377097E-01  4.377100E-01  4.377099E-01  4.377099E-01  4.377099E-01  4.377099E-01  4.377099E-01  4.377099E-01  4.377099E-01  4.377099E-01
 4.377097E-01  4.377100E-01  4.377099E-01  4.377099E-01  4.377099E-01  4.377099E-01  4.377099E-01  4.377099E-01  4.377099E-01  4.377099E-01
 4.377097E-01  4.377100E-01  4.377099E-01  4.377099E-01  4.377099E-01  4.377099E-01  4.377099E-01  4.377099E-01  4.377099E-01  4.377099E-01
 4.377097E-01  4.377100E-01  4.377099E-01  4.377099E-01  4.377099E-01  4.377099E-01  4.377099E-01  4.377099E-01  4.377099E-01  4.377099E-01
 4.377097E-01  4.377100E-01  4.377099E-01  4.377099E-01  4.377099E-01  4.377099E-01  4.377099E-01  4.377099E-01  4.377099E-01  4.377099E-01
 4.377097E-01  4.377100E-01  4.377099E-01  4.377099E-01  4.377099E-01  4.377099E-01  4.377099E-01  4.377099E-01  4.377099E-01  4.377099E-01
 4.377097E-01  4.377100E-01  4.377100E-01  4.377099E-01  4.377099E-01  4.377099E-01  4.377099E-01  4.377099E-01  4.377099E-01  4.377099E-01
 4.377100E-01  4.377100E-01  4.377100E-01  4.377099E-01  4.377099E-01  4.377099E-01  4.377099E-01  4.377099E-01  4.377099E-01  4.377099E-01
 4.377100E-01  4.377100E-01  4.377100E-01  4.377099E-01  4.377099E-01  4.377099E-01  4.377099E-01  4.377099E-01  4.377099E-01  4.377099E-01
 4.377100E-01  4.377100E-01  4.377100E-01  4.377099E-01  4.377099E-01  4.377099E-01  4.377099E-01  4.377099E-01  4.377099E-01  4.377099E-01
 4.377100E-01  4.377100E-01  4.377100E-01  4.377099E-01  4.377099E-01  4.377099E-01  4.377099E-01  4.377099E-01  4.377099E-01  4.377099E-01
 4.377100E-01  4.377100E-01  4.377100E-01  4.377099E-01  4.377099E-01  4.377099E-01  4.377099E-01  4.377099E-01  4.377099E-01  4.377099E-01
 4.377100E-01  4.377100E-01  4.377100E-01  4.377099E-01  4.377099E-01  4.377099E-01  4.377099E-01  4.377099E-01  4.377099E-01  4.377099E-01


SCALARS Permeability         float 1
LOOKUP_TABLE default
 8.829804E-13  8.829803E-13  8.829802E-13  8.829802E-13  8.829802E-13  8.829802E-13  8.829802E-13  8.829802E-13  8.829802E-13  8.829802E-13
 8.829804E-13  8.829803E-13  8.829802E-13  8.829802E-13  8.829802E-13  8.829802E-13  8.829802E-13  8.829802E-13  8.829802E-13  8.829802E-13
 8.829804E-13  8.829803E-13  8.829802E-13  8.829802E-13  8.829802E-13  8.829802E-13  8.829802E-13  8.829802E-13  8.829802E-13  8.829802E-13
 8.829804E-13  8.829803E-13  8.829802E-13  8.829802E-13  8.829802E-13  8.829802E-13  8.829802E-13  8.829802E-13  8.829802E-13  8.829802E-13
 8.829804E-13  8.829803E-13  8.829803E-13  8.829802E-13  8.829802E-13  8.829802E-13  8.829802E-13  8.829802E-13  8.829802E-13  8.829802E-13
 8.829804E-13  8.829803E-13  8.829803E-13  8.829802E-13  8.829802E-13  8.829802E-13  8.829802E-13  8.829802E-13  8.829802E-13  8.829802E-13
 8.829792E-13  8.829803E-13  8.829803E-13  8.829802E-13  8.829802E-13  8.829802E-13  8.829802E-13  8.829802E-13  8.829802E-13  8.829802E-13
 8.829792E-13  8.829803E-13  8.829803E-13  8.829802E-13  8.829802E-13  8.829802E-13  8.829802E-13  8.829802E-13  8.829802E-13  8.829802E-13
 8.829792E-13  8.829803E-13  8.829803E-13  8.829802E-13  8.829802E-13  8.829802E-13  8.829802E-13  8.829802E-13  8.829802E-13  8.829802E-13
 8.829792E-13  8.829803E-13  8.829803E-13  8.829802E-13  8.829802E-13  8.829802E-13  8.829802E-13  8.829802E-13  8.829802E-13  8.829802E-13
 8.829792E-13  8.829803E-13  8.829803E-13  8.829802E-13  8.829802E-13  8.829802E-13  8.829802E-13  8.829802E-13  8.829802E-13  8.829802E-13
 8.829792E-13  8.829803E-13  8.829803E-13  8.829803E-13  8.829802E-13  8.829802E-13  8.829802E-13  8.829802E-13  8.829802E-13  8.829802E-13
 8.829792E-13  8.829803E-13  8.829803E-13  8.829803E-13  8.829802E-13  8.829802E-13  8.829802E-13  8.829802E-13  8.829802E-13  8.829802E-13
 8.829793E-13  8.829803E-13  8.829803E-13  8.829803E-13  8.829802E-13  8.829802E-13  8.829802E-13  8.829802E-13  8.829802E-13  8.829802E-13
 8.829804E-13  8.829803E-13  8.829803E-13  8.829803E-13  8.829802E-13  8.829802E-13  8.829802E-13  8.829802E-13  8.829802E-13  8.829802E-13
 8.829804E-13  8.829803E-13  8.829803E-13  8.829803E-13  8.829802E-13  8.829802E-13  8.829802E-13  8.829802E-13  8.829802E-13  8.829802E-13
 8.829804E-13  8.829803E-13  8.829803E-13  8.829803E-13  8.829803E-13  8.829802E-13  8.829802E-13  8.829802E-13  8.829802E-13  8.829802E-13
 8.829804E-13  8.829803E-13  8.829803E-13  8.829803E-13  8.829803E-13  8.829802E-13  8.829802E-13  8.829802E-13  8.829802E-13  8.829802E-13
 8.829804E-13  8.829803E-13  8.829803E-13  8.829803E-13  8.829803E-13  8.829802E-13  8.829802E-13  8.829802E-13  8.829802E-13  8.829802E-13
 8.829804E-13  8.829803E-13  8.829803E-13  8.829803E-13  8.829803E-13  8.829802E-13  8.829802E-13  8.829802E-13  8.829802E-13  8.829802E-13


SCALARS Liquid_Pressure      float 1
LOOKUP_TABLE default
 8.349405E+06  7.976176E+06  7.800843E+06  7.695121E+06  7.625637E+06  7.577972E+06  7.544175E+06  7.519292E+06  7.500069E+06  7.484321E+06
 8.304237E+06  7.931013E+06  7.755684E+06  7.649964E+06  7.580482E+06  7.532818E+06  7.499022E+06  7.474140E+06  7.454918E+06  7.439169E+06
 8.259075E+06  7.885850E+06  7.710526E+06  7.604809E+06  7.535328E+06  7.487666E+06  7.453871E+06  7.428989E+06  7.409767E+06  7.394019E+06
 8.213919E+06  7.840689E+06  7.665369E+06  7.559655E+06  7.490176E+06  7.442514E+06  7.408720E+06  7.383839E+06  7.364618E+06  7.348871E+06
 8.168768E+06  7.795529E+06  7.620214E+06  7.514502E+06  7.445025E+06  7.397365E+06  7.363571E+06  7.338691E+06  7.319470E+06  7.303723E+06
 8.123624E+06  7.750371E+06  7.575060E+06  7.469351E+06  7.399875E+06  7.352216E+06  7.318424E+06  7.293544E+06  7.274324E+06  7.258577E+06
 8.078486E+06  7.705213E+06  7.529907E+06  7.424200E+06  7.354727E+06  7.307069E+06  7.273277E+06  7.248398E+06  7.229178E+06  7.213432E+06
 8.033342E+06  7.660057E+06  7.484755E+06  7.379051E+06  7.309579E+06  7.261923E+06  7.228132E+06  7.203254E+06  7.184034E+06  7.168288E+06
 7.988192E+06  7.614902E+06  7.439605E+06  7.333904E+06  7.264433E+06  7.216778E+06  7.182988E+06  7.158110E+06  7.138891E+06  7.123146E+06
 7.943036E+06  7.569749E+06  7.394456E+06  7.288757E+06  7.219289E+06  7.171634E+06  7.137845E+06  7.112968E+06  7.093750E+06  7.078005E+06
 7.897874E+06  7.524596E+06  7.349308E+06  7.243612E+06  7.174145E+06  7.126492E+06  7.092704E+06  7.067827E+06  7.048609E+06  7.032865E+06
 7.852707E+06  7.479445E+06  7.304161E+06  7.198468E+06  7.129003E+06  7.081351E+06  7.047564E+06  7.022688E+06  7.003470E+06  6.987726E+06
 7.807533E+06  7.434296E+06  7.259016E+06  7.153325E+06  7.083862E+06  7.036211E+06  7.002425E+06  6.977550E+06  6.958333E+06  6.942589E+06
 7.762354E+06  7.389147E+06  7.213871E+06  7.108184E+06  7.038722E+06  6.991073E+06  6.957287E+06  6.932413E+06  6.913196E+06  6.897452E+06
 7.717168E+06  7.344000E+06  7.168729E+06  7.063043E+06  6.993584E+06  6.945936E+06  6.912151E+06  6.887277E+06  6.868061E+06  6.852318E+06
 7.671989E+06  7.298854E+06  7.123587E+06  7.017904E+06  6.948447E+06  6.900800E+06  6.867016E+06  6.842142E+06  6.822927E+06  6.807184E+06
 7.626816E+06  7.253709E+06  7.078447E+06  6.972767E+06  6.903311E+06  6.855665E+06  6.821882E+06  6.797009E+06  6.777794E+06  6.762052E+06
 7.581649E+06  7.208565E+06  7.033308E+06  6.927630E+06  6.858176E+06  6.810531E+06  6.776749E+06  6.751877E+06  6.732663E+06  6.716921E+06
 7.536487E+06  7.163423E+06  6.988170E+06  6.882495E+06  6.813043E+06  6.765399E+06  6.731618E+06  6.706746E+06  6.687532E+06  6.671791E+06
 7.491332E+06  7.118282E+06  6.943033E+06  6.837361E+06  6.767911E+06  6.720268E+06  6.686488E+06  6.661617E+06  6.642403E+06  6.626662E+06


SCALARS Temperature          float 1
LOOKUP_TABLE default
 1.500497E+02  1.500277E+02  1.500173E+02  1.500110E+02  1.500069E+02  1.500041E+02  1.500021E+02  1.500006E+02  1.499995E+02  1.499985E+02
 1.500497E+02  1.500277E+02  1.500173E+02  1.500110E+02  1.500069E+02  1.500041E+02  1.500021E+02  1.500006E+02  1.499995E+02  1.499985E+02
 1.500497E+02  1.500277E+02  1.500173E+02  1.500110E+02  1.500069E+02  1.500041E+02  1.500021E+02  1.500006E+02  1.499995E+02  1.499985E+02
 1.500497E+02  1.500277E+02  1.500173E+02  1.500110E+02  1.500069E+02  1.500041E+02  1.500021E+02  1.500006E+02  1.499995E+02  1.499985E+02
 1.500497E+02  1.500277E+02  1.500173E+02  1.500110E+02  1.500069E+02  1.500041E+02  1.500021E+02  1.500006E+02  1.499995E+02  1.499985E+02
 1.500496E+02  1.500277E+02  1.500173E+02  1.500110E+02  1.500069E+02  1.500041E+02  1.500021E+02  1.500006E+02  1.499995E+02  1.499985E+02
 1.500494E+02  1.500277E+02  1.500173E+02  1.500110E+02  1.500069E+02  1.500041E+02  1.500021E+02  1.500006E+02  1.499995E+02  1.499985E+02
 1.500494E+02  1.500277E+02  1.500173E+02  1.500110E+02  1.500069E+02  1.500041E+02  1.500021E+02  1.500006E+02  1.499995E+02  1.499985E+02
 1.500495E+02  1.500277E+02  1.500173E+02  1.500110E+02  1.500069E+02  1.500041E+02  1.500021E+02  1.500006E+02  1.499995E+02  1.499985E+02
 1.500495E+02  1.500277E+02  1.500173E+02  1.500110E+02  1.500069E+02  1.500041E+02  1.500021E+02  1.500006E+02  1.499995E+02  1.499985E+02
 1.500495E+02  1.500277E+02  1.500173E+02  1.500110E+02  1.500069E+02  1.500041E+02  1.500021E+02  1.500006E+02  1.499995E+02  1.499986E+02
 1.500495E+02  1.500277E+02  1.500173E+02  1.500110E+02  1.500069E+02  1.500041E+02  1.500021E+02  1.500006E+02  1.499995E+02  1.499986E+02
 1.500496E+02  1.500278E+02  1.500173E+02  1.500111E+02  1.500069E+02  1.500041E+02  1.500021E+02  1.500006E+02  1.499995E+02  1.499986E+02
 1.500496E+02  1.500278E+02  1.500173E+02  1.500111E+02  1.500069E+02  1.500041E+02  1.500021E+02  1.500006E+02  1.499995E+02  1.499986E+02
 1.500499E+02  1.500278E+02  1.500173E+02  1.500111E+02  1.500069E+02  1.500041E+02  1.500021E+02  1.500006E+02  1.499995E+02  1.499986E+02
 1.500499E+02  1.500278E+02  1.500173E+02  1.500111E+02  1.500069E+02  1.500041E+02  1.500021E+02  1.500006E+02  1.499995E+02  1.499986E+02
 1.500499E+02  1.500278E+02  1.500173E+02  1.500111E+02  1.500069E+02  1.500041E+02  1.500021E+02  1.500006E+02  1.499995E+02  1.499986E+02
 1.500499E+02  1.500278E+02  1.500173E+02  1.500111E+02  1.500069E+02  1.500041E+02  1.500021E+02  1.500006E+02  1.499995E+02  1.499986E+02
 1.500499E+02  1.500278E+02  1.500173E+02  1.500111E+02  1.500069E+02  1.500041E+02  1.500021E+02  1.500006E+02  1.499995E+02  1.499986E+02
 1.500499E+02  1.500278E+02  1.500173E+02  1.500111E+02  1.500069E+02  1.500041E+02  1.500021E+02  1.500006E+02  1.499995E+02  1.499986E+02


SCALARS pH                   float 1
LOOKUP_TABLE default
 6.144484E+00  6.144451E+00  6.144436E+00  6.144426E+00  6.144420E+00  6.144416E+00  6.144413E+00  6.144411E+00  6.144409E+00  6.144408E+00
 6.144484E+00  6.144451E+00  6.144436E+00  6.144426E+00  6.144420E+00  6.144416E+00  6.144413E+00  6.144411E+00  6.144409E+00  6.144408E+00
 6.144484E+00  6.144451E+00  6.144436E+00  6.144426E+00  6.144420E+00  6.144416E+00  6.144413E+00  6.144411E+00  6.144409E+00  6.144408E+00
 6.144484E+00  6.144451E+00  6.144436E+00  6.144426E+00  6.144420E+00  6.144416E+00  6.144413E+00  6.144411E+00  6.144409E+00  6.144408E+00
 6.144484E+00  6.144451E+00  6.144436E+00  6.144426E+00  6.144420E+00  6.144416E+00  6.144413E+00  6.144411E+00  6.144409E+00  6.144408E+00
 6.144484E+00  6.144451E+00  6.144436E+00  6.144426E+00  6.144420E+00  6.144416E+00  6.144413E+00  6.144411E+00  6.144409E+00  6.144408E+00
 6.144492E+00  6.144451E+00  6.144436E+00  6.144426E+00  6.144420E+00  6.144416E+00  6.144413E+00  6.144411E+00  6.144409E+00  6.144408E+00
 6.144492E+00  6.144451E+00  6.144436E+00  6.144427E+00  6.144420E+00  6.144416E+00  6.144413E+00  6.144411E+00  6.144409E+00  6.144408E+00
 6.144492E+00  6.144451E+00  6.144436E+00  6.144427E+00  6.144420E+00  6.144416E+00  6.144413E+00  6.144411E+00  6.144409E+00  6.144408E+00
 6.144492E+00  6.144451E+00  6.144436E+00  6.144427E+00  6.144420E+00  6.144416E+00  6.144413E+00  6.144411E+00  6.144409E+00  6.144408E+00
 6.144492E+00  6.144451E+00  6.144436E+00  6.144427E+00  6.144420E+00  6.144416E+00  6.144413E+00  6.144411E+00  6.144409E+00  6.144408E+00
 6.144492E+00  6.144451E+00  6.144436E+00  6.144427E+00  6.144420E+00  6.144416E+00  6.144413E+00  6.144411E+00  6.144409E+00  6.144408E+00
 6.144492E+00  6.144451E+00  6.144436E+00  6.144427E+00  6.144420E+00  6.144416E+00  6.144413E+00  6.144411E+00  6.144409E+00  6.144408E+00
 6.144492E+00  6.144451E+00  6.144436E+00  6.144427E+00  6.144420E+00  6.144416E+00  6.144413E+00  6.144411E+00  6.144409E+00  6.144408E+00
 6.144484E+00  6.144451E+00  6.144436E+00  6.144427E+00  6.144420E+00  6.144416E+00  6.144413E+00  6.144411E+00  6.144409E+00  6.144408E+00
 6.144484E+00  6.144451E+00  6.144436E+00  6.144427E+00  6.144420E+00  6.144416E+00  6.144413E+00  6.144411E+00  6.144409E+00  6.144408E+00
 6.144484E+00  6.144451E+00  6.144436E+00  6.144427E+00  6.144420E+00  6.144416E+00  6.144413E+00  6.144411E+00  6.144409E+00  6.144408E+00
 6.144484E+00  6.144451E+00  6.144436E+00  6.144427E+00  6.144421E+00  6.144416E+00  6.144413E+00  6.144411E+00  6.144409E+00  6.144408E+00
 6.144484E+00  6.144451E+00  6.144436E+00  6.144427E+00  6.144421E+00  6.144416E+00  6.144413E+00  6.144411E+00  6.144409E+00  6.144408E+00
 6.144484E+00  6.144451E+00  6.144436E+00  6.144427E+00  6.144421E+00  6.144416E+00  6.144413E+00  6.144411E+00  6.144409E+00  6.144408E+00


SCALARS Total_H+             float 1
LOOKUP_TABLE default
-3.036406E-03 -3.037154E-03 -3.037511E-03 -3.037727E-03 -3.037870E-03 -3.037968E-03 -3.038038E-03 -3.038089E-03 -3.038128E-03 -3.038160E-03
-3.036405E-03 -3.037153E-03 -3.037510E-03 -3.037726E-03 -3.037869E-03 -3.037967E-03 -3.038037E-03 -3.038088E-03 -3.038127E-03 -3.038159E-03
-3.036405E-03 -3.037153E-03 -3.037509E-03 -3.037726E-03 -3.037868E-03 -3.037967E-03 -3.038036E-03 -3.038088E-03 -3.038127E-03 -3.038158E-03
-3.036405E-03 -3.037152E-03 -3.037509E-03 -3.037725E-03 -3.037868E-03 -3.037966E-03 -3.038036E-03 -3.038087E-03 -3.038126E-03 -3.038158E-03
-3.036404E-03 -3.037151E-03 -3.037508E-03 -3.037724E-03 -3.037867E-03 -3.037965E-03 -3.038035E-03 -3.038086E-03 -3.038125E-03 -3.038157E-03
-3.036404E-03 -3.037150E-03 -3.037507E-03 -3.037724E-03 -3.037866E-03 -3.037965E-03 -3.038034E-03 -3.038086E-03 -3.038125E-03 -3.038156E-03
-3.036433E-03 -3.037150E-03 -3.037507E-03 -3.037723E-03 -3.037866E-03 -3.037964E-03 -3.038034E-03 -3.038085E-03 -3.038124E-03 -3.038156E-03
-3.036432E-03 -3.037149E-03 -3.037506E-03 -3.037722E-03 -3.037865E-03 -3.037963E-03 -3.038033E-03 -3.038084E-03 -3.038124E-03 -3.038155E-03
-3.036430E-03 -3.037148E-03 -3.037505E-03 -3.037722E-03 -3.037864E-03 -3.037963E-03 -3.038033E-03 -3.038084E-03 -3.038123E-03 -3.038155E-03
-3.036429E-03 -3.037147E-03 -3.037505E-03 -3.037721E-03 -3.037864E-03 -3.037962E-03 -3.038032E-03 -3.038083E-03 -3.038122E-03 -3.038154E-03
-3.036429E-03 -3.037147E-03 -3.037504E-03 -3.037720E-03 -3.037863E-03 -3.037961E-03 -3.038031E-03 -3.038083E-03 -3.038122E-03 -3.038153E-03
-3.036427E-03 -3.037146E-03 -3.037503E-03 -3.037719E-03 -3.037862E-03 -3.037961E-03 -3.038031E-03 -3.038082E-03 -3.038121E-03 -3.038153E-03
-3.036426E-03 -3.037145E-03 -3.037502E-03 -3.037719E-03 -3.037862E-03 -3.037960E-03 -3.038030E-03 -3.038081E-03 -3.038120E-03 -3.038152E-03
-3.036425E-03 -3.037144E-03 -3.037502E-03 -3.037718E-03 -3.037861E-03 -3.037960E-03 -3.038029E-03 -3.038081E-03 -3.038120E-03 -3.038151E-03
-3.036390E-03 -3.037144E-03 -3.037501E-03 -3.037717E-03 -3.037860E-03 -3.037959E-03 -3.038029E-03 -3.038080E-03 -3.038119E-03 -3.038151E-03
-3.036390E-03 -3.037143E-03 -3.037500E-03 -3.037717E-03 -3.037860E-03 -3.037958E-03 -3.038028E-03 -3.038079E-03 -3.038119E-03 -3.038150E-03
-3.036389E-03 -3.037142E-03 -3.037500E-03 -3.037716E-03 -3.037859E-03 -3.037958E-03 -3.038028E-03 -3.038079E-03 -3.038118E-03 -3.038150E-03
-3.036389E-03 -3.037141E-03 -3.037499E-03 -3.037715E-03 -3.037859E-03 -3.037957E-03 -3.038027E-03 -3.038078E-03 -3.038117E-03 -3.038149E-03
-3.036389E-03 -3.037141E-03 -3.037498E-03 -3.037715E-03 -3.037858E-03 -3.037956E-03 -3.038026E-03 -3.038078E-03 -3.038117E-03 -3.038148E-03
-3.036389E-03 -3.037140E-03 -3.037498E-03 -3.037714E-03 -3.037857E-03 -3.037956E-03 -3.038026E-03 -3.038077E-03 -3.038116E-03 -3.038148E-03


SCALARS Total_SiO2(aq)       float 1
LOOKUP_TABLE default
 1.039632E-02  1.039443E-02  1.039354E-02  1.039300E-02  1.039265E-02  1.039241E-02  1.039224E-02  1.039211E-02  1.039201E-02  1.039193E-02
 1.039632E-02  1.039444E-02  1.039354E-02  1.039300E-02  1.039265E-02  1.039241E-02  1.039224E-02  1.039211E-02  1.039201E-02  1.039193E-02
 1.039632E-02  1.039444E-02  1.039354E-02  1.039300E-02  1.039265E-02  1.039241E-02  1.039224E-02  1.039211E-02  1.039201E-02  1.039193E-02
 1.039632E-02  1.039444E-02  1.039354E-02  1.039300E-02  1.039265E-02  1.039241E-02  1.039224E-02  1.039211E-02  1.039201E-02  1.039193E-02
 1.039632E-02  1.039444E-02  1.039354E-02  1.039300E-02  1.039265E-02  1.039241E-02  1.039224E-02  1.039211E-02  1.039201E-02  1.039193E-02
 1.039632E-02  1.039444E-02  1.039354E-02  1.039300E-02  1.039265E-02  1.039241E-02  1.039224E-02  1.039211E-02  1.039201E-02  1.039193E-02
 1.039653E-02  1.039444E-02  1.039354E-02  1.039300E-02  1.039265E-02  1.039241E-02  1.039224E-02  1.039211E-02  1.039201E-02  1.039193E-02
 1.039653E-02  1.039444E-02  1.039354E-02  1.039300E-02  1.039265E-02  1.039241E-02  1.039224E-02  1.039211E-02  1.039201E-02  1.039193E-02
 1.039654E-02  1.039444E-02  1.039354E-02  1.039300E-02  1.039265E-02  1.039241E-02  1.039224E-02  1.039211E-02  1.039201E-02  1.039193E-02
 1.039654E-02  1.039444E-02  1.039354E-02  1.039300E-02  1.039265E-02  1.039241E-02  1.039224E-02  1.039211E-02  1.039201E-02  1.039193E-02
 1.039654E-02  1.039444E-02  1.039354E-02  1.039300E-02  1.039265E-02  1.039241E-02  1.039224E-02  1.039211E-02  1.039201E-02  1.039193E-02
 1.039654E-02  1.039444E-02  1.039354E-02  1.039301E-02  1.039265E-02  1.039241E-02  1.039224E-02  1.039211E-02  1.039201E-02  1.039193E-02
 1.039655E-02  1.039444E-02  1.039354E-02  1.039301E-02  1.039265E-02  1.039241E-02  1.039224E-02  1.039211E-02  1.039201E-02  1.039193E-02
 1.039655E-02  1.039444E-02  1.039354E-02  1.039301E-02  1.039265E-02  1.039241E-02  1.039224E-02  1.039211E-02  1.039201E-02  1.039193E-02
 1.039634E-02  1.039444E-02  1.039354E-02  1.039301E-02  1.039265E-02  1.039241E-02  1.039224E-02  1.039211E-02  1.039201E-02  1.039193E-02
 1.039634E-02  1.039444E-02  1.039354E-02  1.039301E-02  1.039265E-02  1.039241E-02  1.039224E-02  1.039211E-02  1.039201E-02  1.039193E-02
 1.039634E-02  1.039444E-02  1.039354E-02  1.039301E-02  1.039265E-02  1.039241E-02  1.039224E-02  1.039211E-02  1.039201E-02  1.039193E-02
 1.039634E-02  1.039444E-02  1.039354E-02  1.039301E-02  1.039265E-02  1.039241E-02  1.039224E-02  1.039211E-02  1.039201E-02  1.039193E-02
 1.039634E-02  1.039444E-02  1.039354E-02  1.039301E-02  1.039265E-02  1.039241E-02  1.039224E-02  1.039211E-02  1.039201E-02  1.039193E-02