# vtk DataFile Version 2.0
PFLOTRAN output
ASCII
DATASET UNSTRUCTURED_GRID
POINTS         4242 float
 0.000000E+00  0.000000E+00  0.000000E+00
 2.000000E+02  0.000000E+00  0.000000E+00
 4.000000E+02  0.000000E+00  0.000000E+00
 6.000000E+02  0.000000E+00  0.000000E+00
 8.000000E+02  0.000000E+00  0.000000E+00
 1.000000E+03  0.000000E+00  0.000000E+00
 1.200000E+03  0.000000E+00  0.000000E+00
 1.400000E+03  0.000000E+00  0.000000E+00
 1.600000E+03  0.000000E+00  0.000000E+00
 1.800000E+03  0.000000E+00  0.000000E+00
 2.000000E+03  0.000000E+00  0.000000E+00
 2.200000E+03  0.000000E+00  0.000000E+00
 2.400000E+03  0.000000E+00  0.000000E+00
 2.600000E+03  0.000000E+00  0.000000E+00
 2.800000E+03  0.000000E+00  0.000000E+00
 3.000000E+03  0.000000E+00  0.000000E+00
 3.200000E+03  0.000000E+00  0.000000E+00
 3.400000E+03  0.000000E+00  0.000000E+00
 3.600000E+03  0.000000E+00  0.000000E+00
 3.800000E+03  0.000000E+00  0.000000E+00
 4.000000E+03  0.000000E+00  0.000000E+00
 4.200000E+03  0.000000E+00  0.000000E+00
 4.400000E+03  0.000000E+00  0.000000E+00
 4.600000E+03  0.000000E+00  0.000000E+00
 4.800000E+03  0.000000E+00  0.000000E+00
 5.000000E+03  0.000000E+00  0.000000E+00
 5.200000E+03  0.000000E+00  0.000000E+00
 5.400000E+03  0.000000E+00  0.000000E+00
 5.600000E+03  0.000000E+00  0.000000E+00
 5.800000E+03  0.000000E+00  0.000000E+00
 6.000000E+03  0.000000E+00  0.000000E+00
 6.200000E+03  0.000000E+00  0.000000E+00
 6.400000E+03  0.000000E+00  0.000000E+00
 6.600000E+03  0.000000E+00  0.000000E+00
 6.800000E+03  0.000000E+00  0.000000E+00
 7.000000E+03  0.000000E+00  0.000000E+00
 7.200000E+03  0.000000E+00  0.000000E+00
 7.400000E+03  0.000000E+00  0.000000E+00
 7.600000E+03  0.000000E+00  0.000000E+00
 7.800000E+03  0.000000E+00  0.000000E+00
 8.000000E+03  0.000000E+00  0.000000E+00
 8.200000E+03  0.000000E+00  0.000000E+00
 8.400000E+03  0.000000E+00  0.000000E+00
 8.600000E+03  0.000000E+00  0.000000E+00
 8.800000E+03  0.000000E+00  0.000000E+00
 9.000000E+03  0.000000E+00  0.000000E+00
 9.200000E+03  0.000000E+00  0.000000E+00
 9.400000E+03  0.000000E+00  0.000000E+00
 9.600000E+03  0.000000E+00  0.000000E+00
 9.800000E+03  0.000000E+00  0.000000E+00
 1.000000E+04  0.000000E+00  0.000000E+00
 1.020000E+04  0.000000E+00  0.000000E+00
 1.040000E+04  0.000000E+00  0.000000E+00
 1.060000E+04  0.000000E+00  0.000000E+00
 1.080000E+04  0.000000E+00  0.000000E+00
 1.100000E+04  0.000000E+00  0.000000E+00
 1.120000E+04  0.000000E+00  0.000000E+00
 1.140000E+04  0.000000E+00  0.000000E+00
 1.160000E+04  0.000000E+00  0.000000E+00
 1.180000E+04  0.000000E+00  0.000000E+00
 1.200000E+04  0.000000E+00  0.000000E+00
 1.220000E+04  0.000000E+00  0.000000E+00
 1.240000E+04  0.000000E+00  0.000000E+00
 1.260000E+04  0.000000E+00  0.000000E+00
 1.280000E+04  0.000000E+00  0.000000E+00
 1.300000E+04  0.000000E+00  0.000000E+00
 1.320000E+04  0.000000E+00  0.000000E+00
 1.340000E+04  0.000000E+00  0.000000E+00
 1.360000E+04  0.000000E+00  0.000000E+00
 1.380000E+04  0.000000E+00  0.000000E+00
 1.400000E+04  0.000000E+00  0.000000E+00
 1.420000E+04  0.000000E+00  0.000000E+00
 1.440000E+04  0.000000E+00  0.000000E+00
 1.460000E+04  0.000000E+00  0.000000E+00
 1.480000E+04  0.000000E+00  0.000000E+00
 1.500000E+04  0.000000E+00  0.000000E+00
 1.520000E+04  0.000000E+00  0.000000E+00
 1.540000E+04  0.000000E+00  0.000000E+00
 1.560000E+04  0.000000E+00  0.000000E+00
 1.580000E+04  0.000000E+00  0.000000E+00
 1.600000E+04  0.000000E+00  0.000000E+00
 1.620000E+04  0.000000E+00  0.000000E+00
 1.640000E+04  0.000000E+00  0.000000E+00
 1.660000E+04  0.000000E+00  0.000000E+00
 1.680000E+04  0.000000E+00  0.000000E+00
 1.700000E+04  0.000000E+00  0.000000E+00
 1.720000E+04  0.000000E+00  0.000000E+00
 1.740000E+04  0.000000E+00  0.000000E+00
 1.760000E+04  0.000000E+00  0.000000E+00
 1.780000E+04  0.000000E+00  0.000000E+00
 1.800000E+04  0.000000E+00  0.000000E+00
 1.820000E+04  0.000000E+00  0.000000E+00
 1.840000E+04  0.000000E+00  0.000000E+00
 1.860000E+04  0.000000E+00  0.000000E+00
 1.880000E+04  0.000000E+00  0.000000E+00
 1.900000E+04  0.000000E+00  0.000000E+00
 1.920000E+04  0.000000E+00  0.000000E+00
 1.940000E+04  0.000000E+00  0.000000E+00
 1.960000E+04  0.000000E+00  0.000000E+00
 1.980000E+04  0.000000E+00  0.000000E+00
 2.000000E+04  0.000000E+00  0.000000E+00
 0.000000E+00  1.000000E+00  0.000000E+00
 2.000000E+02  1.000000E+00  0.000000E+00
 4.000000E+02  1.000000E+00  0.000000E+00
 6.000000E+02  1.000000E+00  0.000000E+00
 8.000000E+02  1.000000E+00  0.000000E+00
 1.000000E+03  1.000000E+00  0.000000E+00
 1.200000E+03  1.000000E+00  0.000000E+00
 1.400000E+03  1.000000E+00  0.000000E+00
 1.600000E+03  1.000000E+00  0.000000E+00
 1.800000E+03  1.000000E+00  0.000000E+00
 2.000000E+03  1.000000E+00  0.000000E+00
 2.200000E+03  1.000000E+00  0.000000E+00
 2.400000E+03  1.000000E+00  0.000000E+00
 2.600000E+03  1.000000E+00  0.000000E+00
 2.800000E+03  1.000000E+00  0.000000E+00
 3.000000E+03  1.000000E+00  0.000000E+00
 3.200000E+03  1.000000E+00  0.000000E+00
 3.400000E+03  1.000000E+00  0.000000E+00
 3.600000E+03  1.000000E+00  0.000000E+00
 3.800000E+03  1.000000E+00  0.000000E+00
 4.000000E+03  1.000000E+00  0.000000E+00
 4.200000E+03  1.000000E+00  0.000000E+00
 4.400000E+03  1.000000E+00  0.000000E+00
 4.600000E+03  1.000000E+00  0.000000E+00
 4.800000E+03  1.000000E+00  0.000000E+00
 5.000000E+03  1.000000E+00  0.000000E+00
 5.200000E+03  1.000000E+00  0.000000E+00
 5.400000E+03  1.000000E+00  0.000000E+00
 5.600000E+03  1.000000E+00  0.000000E+00
 5.800000E+03  1.000000E+00  0.000000E+00
 6.000000E+03  1.000000E+00  0.000000E+00
 6.200000E+03  1.000000E+00  0.000000E+00
 6.400000E+03  1.000000E+00  0.000000E+00
 6.600000E+03  1.000000E+00  0.000000E+00
 6.800000E+03  1.000000E+00  0.000000E+00
 7.000000E+03  1.000000E+00  0.000000E+00
 7.200000E+03  1.000000E+00  0.000000E+00
 7.400000E+03  1.000000E+00  0.000000E+00
 7.600000E+03  1.000000E+00  0.000000E+00
 7.800000E+03  1.000000E+00  0.000000E+00
 8.000000E+03  1.000000E+00  0.000000E+00
 8.200000E+03  1.000000E+00  0.000000E+00
 8.400000E+03  1.000000E+00  0.000000E+00
 8.600000E+03  1.000000E+00  0.000000E+00
 8.800000E+03  1.000000E+00  0.000000E+00
 9.000000E+03  1.000000E+00  0.000000E+00
 9.200000E+03  1.000000E+00  0.000000E+00
 9.400000E+03  1.000000E+00  0.000000E+00
 9.600000E+03  1.000000E+00  0.000000E+00
 9.800000E+03  1.000000E+00  0.000000E+00
 1.000000E+04  1.000000E+00  0.000000E+00
 1.020000E+04  1.000000E+00  0.000000E+00
 1.040000E+04  1.000000E+00  0.000000E+00
 1.060000E+04  1.000000E+00  0.000000E+00
 1.080000E+04  1.000000E+00  0.000000E+00
 1.100000E+04  1.000000E+00  0.000000E+00
 1.120000E+04  1.000000E+00  0.000000E+00
 1.140000E+04  1.000000E+00  0.000000E+00
 1.160000E+04  1.000000E+00  0.000000E+00
 1.180000E+04  1.000000E+00  0.000000E+00
 1.200000E+04  1.000000E+00  0.000000E+00
 1.220000E+04  1.000000E+00  0.000000E+00
 1.240000E+04  1.000000E+00  0.000000E+00
 1.260000E+04  1.000000E+00  0.000000E+00
 1.280000E+04  1.000000E+00  0.000000E+00
 1.300000E+04  1.000000E+00  0.000000E+00
 1.320000E+04  1.000000E+00  0.000000E+00
 1.340000E+04  1.000000E+00  0.000000E+00
 1.360000E+04  1.000000E+00  0.000000E+00
 1.380000E+04  1.000000E+00  0.000000E+00
 1.400000E+04  1.000000E+00  0.000000E+00
 1.420000E+04  1.000000E+00  0.000000E+00
 1.440000E+04  1.000000E+00  0.000000E+00
 1.460000E+04  1.000000E+00  0.000000E+00
 1.480000E+04  1.000000E+00  0.000000E+00
 1.500000E+04  1.000000E+00  0.000000E+00
 1.520000E+04  1.000000E+00  0.000000E+00
 1.540000E+04  1.000000E+00  0.000000E+00
 1.560000E+04  1.000000E+00  0.000000E+00
 1.580000E+04  1.000000E+00  0.000000E+00
 1.600000E+04  1.000000E+00  0.000000E+00
 1.620000E+04  1.000000E+00  0.000000E+00
 1.640000E+04  1.000000E+00  0.000000E+00
 1.660000E+04  1.000000E+00  0.000000E+00
 1.680000E+04  1.000000E+00  0.000000E+00
 1.700000E+04  1.000000E+00  0.000000E+00
 1.720000E+04  1.000000E+00  0.000000E+00
 1.740000E+04  1.000000E+00  0.000000E+00
 1.760000E+04  1.000000E+00  0.000000E+00
 1.780000E+04  1.000000E+00  0.000000E+00
 1.800000E+04  1.000000E+00  0.000000E+00
 1.820000E+04  1.000000E+00  0.000000E+00
 1.840000E+04  1.000000E+00  0.000000E+00
 1.860000E+04  1.000000E+00  0.000000E+00
 1.880000E+04  1.000000E+00  0.000000E+00
 1.900000E+04  1.000000E+00  0.000000E+00
 1.920000E+04  1.000000E+00  0.000000E+00
 1.940000E+04  1.000000E+00  0.000000E+00
 1.960000E+04  1.000000E+00  0.000000E+00
 1.980000E+04  1.000000E+00  0.000000E+00
 2.000000E+04  1.000000E+00  0.000000E+00
 0.000000E+00  0.000000E+00  1.500000E+01
 2.000000E+02  0.000000E+00  1.500000E+01
 4.000000E+02  0.000000E+00  1.500000E+01
 6.000000E+02  0.000000E+00  1.500000E+01
 8.000000E+02  0.000000E+00  1.500000E+01
 1.000000E+03  0.000000E+00  1.500000E+01
 1.200000E+03  0.000000E+00  1.500000E+01
 1.400000E+03  0.000000E+00  1.500000E+01
 1.600000E+03  0.000000E+00  1.500000E+01
 1.800000E+03  0.000000E+00  1.500000E+01
 2.000000E+03  0.000000E+00  1.500000E+01
 2.200000E+03  0.000000E+00  1.500000E+01
 2.400000E+03  0.000000E+00  1.500000E+01
 2.600000E+03  0.000000E+00  1.500000E+01
 2.800000E+03  0.000000E+00  1.500000E+01
 3.000000E+03  0.000000E+00  1.500000E+01
 3.200000E+03  0.000000E+00  1.500000E+01
 3.400000E+03  0.000000E+00  1.500000E+01
 3.600000E+03  0.000000E+00  1.500000E+01
 3.800000E+03  0.000000E+00  1.500000E+01
 4.000000E+03  0.000000E+00  1.500000E+01
 4.200000E+03  0.000000E+00  1.500000E+01
 4.400000E+03  0.000000E+00  1.500000E+01
 4.600000E+03  0.000000E+00  1.500000E+01
 4.800000E+03  0.000000E+00  1.500000E+01
 5.000000E+03  0.000000E+00  1.500000E+01
 5.200000E+03  0.000000E+00  1.500000E+01
 5.400000E+03  0.000000E+00  1.500000E+01
 5.600000E+03  0.000000E+00  1.500000E+01
 5.800000E+03  0.000000E+00  1.500000E+01
 6.000000E+03  0.000000E+00  1.500000E+01
 6.200000E+03  0.000000E+00  1.500000E+01
 6.400000E+03  0.000000E+00  1.500000E+01
[...]
CELL_DATA     2000
SCALARS Vlx                  float 1
LOOKUP_TABLE default
 3.758465E+01  3.668292E+01  3.211802E+01  2.599802E+01  2.107141E+01  1.747004E+01  1.484200E+01  1.287630E+01  1.136196E+01  1.016298E+01
 9.191124E+00  8.387672E+00  7.712363E+00  7.136768E+00  6.640274E+00  6.207579E+00  5.827092E+00  5.489866E+00  5.188893E+00  4.918601E+00
 4.674504E+00  4.452952E+00  4.250946E+00  4.065994E+00  3.896014E+00  3.739248E+00  3.594206E+00  3.459614E+00  3.334376E+00  3.217546E+00
 3.108301E+00  3.005923E+00  2.909782E+00  2.819325E+00  2.734061E+00  2.653556E+00  2.577422E+00  2.505314E+00  2.436921E+00  2.371965E+00
 2.310196E+00  2.251386E+00  2.195330E+00  2.141841E+00  2.090750E+00  2.041901E+00  1.995153E+00  1.950376E+00  1.907452E+00  1.866270E+00
 1.826729E+00  1.788738E+00  1.752209E+00  1.717063E+00  1.683227E+00  1.650631E+00  1.619212E+00  1.588911E+00  1.559673E+00  1.531445E+00
 1.504179E+00  1.477831E+00  1.452358E+00  1.427719E+00  1.403879E+00  1.380802E+00  1.358454E+00  1.336805E+00  1.315826E+00  1.295488E+00
 1.275766E+00  1.256636E+00  1.238072E+00  1.220055E+00  1.202562E+00  1.185573E+00  1.169071E+00  1.153036E+00  1.137452E+00  1.122303E+00
 1.107573E+00  1.093248E+00  1.079313E+00  1.065755E+00  1.052562E+00  1.039721E+00  1.027222E+00  1.015052E+00  1.003201E+00  9.916589E-01
 9.804166E-01  9.694647E-01  9.587944E-01  9.483975E-01  9.382664E-01  9.283945E-01  9.187762E-01  9.094087E-01  9.002954E-01  8.914711E-01
 4.050787E+01  3.829637E+01  3.265904E+01  2.615064E+01  2.111336E+01  1.748218E+01  1.484610E+01  1.287815E+01  1.136312E+01  1.016389E+01
 9.191909E+00  8.388378E+00  7.713009E+00  7.137365E+00  6.640829E+00  6.208099E+00  5.827579E+00  5.490326E+00  5.189327E+00  4.919012E+00
 4.674895E+00  4.453325E+00  4.251302E+00  4.066334E+00  3.896340E+00  3.739561E+00  3.594507E+00  3.459904E+00  3.334655E+00  3.217815E+00
 3.108561E+00  3.006174E+00  2.910026E+00  2.819561E+00  2.734290E+00  2.653778E+00  2.577638E+00  2.505523E+00  2.437125E+00  2.372164E+00
 2.310389E+00  2.251574E+00  2.195513E+00  2.142020E+00  2.090925E+00  2.042072E+00  1.995320E+00  1.950539E+00  1.907611E+00  1.866426E+00
 1.826882E+00  1.788887E+00  1.752356E+00  1.717207E+00  1.683368E+00  1.650769E+00  1.619348E+00  1.589044E+00  1.559803E+00  1.531573E+00
 1.504305E+00  1.477955E+00  1.452479E+00  1.427839E+00  1.403996E+00  1.380917E+00  1.358568E+00  1.336917E+00  1.315936E+00  1.295597E+00
 1.275873E+00  1.256741E+00  1.238176E+00  1.220157E+00  1.202662E+00  1.185672E+00  1.169169E+00  1.153132E+00  1.137547E+00  1.122397E+00
 1.107666E+00  1.093339E+00  1.079403E+00  1.065844E+00  1.052650E+00  1.039808E+00  1.027308E+00  1.015136E+00  1.003285E+00  9.917418E-01
 9.804986E-01  9.695458E-01  9.588745E-01  9.484767E-01  9.383448E-01  9.284719E-01  9.188526E-01  9.094837E-01  9.003673E-01  8.915181E-01
 4.671830E+01  4.163446E+01  3.372322E+01  2.644299E+01  2.119196E+01  1.750399E+01  1.485278E+01  1.288069E+01  1.136447E+01  1.016485E+01
 9.192708E+00  8.389088E+00  7.713657E+00  7.137963E+00  6.641385E+00  6.208618E+00  5.828067E+00  5.490785E+00  5.189761E+00  4.919424E+00
 4.675286E+00  4.453697E+00  4.251657E+00  4.066674E+00  3.896665E+00  3.739874E+00  3.594808E+00  3.460193E+00  3.334934E+00  3.218084E+00
 3.108821E+00  3.006425E+00  2.910269E+00  2.819797E+00  2.734519E+00  2.654000E+00  2.577853E+00  2.505733E+00  2.437328E+00  2.372362E+00
 2.310582E+00  2.251762E+00  2.195697E+00  2.142199E+00  2.091099E+00  2.042242E+00  1.995487E+00  1.950702E+00  1.907771E+00  1.866582E+00
 1.827035E+00  1.789037E+00  1.752502E+00  1.717350E+00  1.683508E+00  1.650907E+00  1.619483E+00  1.589177E+00  1.559934E+00  1.531701E+00
 1.504431E+00  1.478078E+00  1.452600E+00  1.427958E+00  1.404114E+00  1.381032E+00  1.358681E+00  1.337029E+00  1.316046E+00  1.295705E+00
 1.275980E+00  1.256846E+00  1.238279E+00  1.220259E+00  1.202763E+00  1.185772E+00  1.169266E+00  1.153229E+00  1.137642E+00  1.122491E+00
 1.107758E+00  1.093430E+00  1.079493E+00  1.065933E+00  1.052738E+00  1.039895E+00  1.027393E+00  1.015221E+00  1.003368E+00  9.918247E-01
 9.805806E-01  9.696267E-01  9.589546E-01  9.485559E-01  9.384229E-01  9.285490E-01  9.189284E-01  9.095577E-01  9.004369E-01  8.915691E-01
 5.700527E+01  4.693455E+01  3.527378E+01  2.685327E+01  2.130034E+01  1.753356E+01  1.486151E+01  1.288378E+01  1.136596E+01  1.016585E+01
 9.193517E+00  8.389801E+00  7.714305E+00  7.138561E+00  6.641940E+00  6.209137E+00  5.828554E+00  5.491244E+00  5.190195E+00  4.919835E+00
 4.675677E+00  4.454070E+00  4.252012E+00  4.067014E+00  3.896991E+00  3.740186E+00  3.595108E+00  3.460482E+00  3.335213E+00  3.218353E+00
 3.109080E+00  3.006677E+00  2.910512E+00  2.820032E+00  2.734747E+00  2.654222E+00  2.578069E+00  2.505942E+00  2.437532E+00  2.372560E+00
 2.310775E+00  2.251951E+00  2.195880E+00  2.142378E+00  2.091274E+00  2.042413E+00  1.995653E+00  1.950865E+00  1.907930E+00  1.866738E+00
 1.827188E+00  1.789186E+00  1.752648E+00  1.717494E+00  1.683649E+00  1.651045E+00  1.619618E+00  1.589310E+00  1.560064E+00  1.531829E+00
 1.504556E+00  1.478202E+00  1.452722E+00  1.428077E+00  1.404231E+00  1.381148E+00  1.358795E+00  1.337140E+00  1.316156E+00  1.295813E+00
 1.276086E+00  1.256951E+00  1.238383E+00  1.220361E+00  1.202863E+00  1.185871E+00  1.169364E+00  1.153325E+00  1.137737E+00  1.122584E+00
 1.107851E+00  1.093522E+00  1.079583E+00  1.066022E+00  1.052826E+00  1.039982E+00  1.027479E+00  1.015306E+00  1.003452E+00  9.919075E-01
 9.806624E-01  9.697077E-01  9.590346E-01  9.486349E-01  9.385010E-01  9.286259E-01  9.190038E-01  9.096308E-01  9.005052E-01  8.916233E-01
 7.270173E+01  5.457633E+01  3.723863E+01  2.734829E+01  2.142868E+01  1.756818E+01  1.487157E+01  1.288723E+01  1.136756E+01  1.016687E+01
 9.194334E+00  8.390515E+00  7.714953E+00  7.139158E+00  6.642496E+00  6.209656E+00  5.829041E+00  5.491703E+00  5.190629E+00  4.920246E+00
 4.676067E+00  4.454442E+00  4.252368E+00  4.067354E+00  3.897317E+00  3.740499E+00  3.595409E+00  3.460771E+00  3.335491E+00  3.218622E+00
 3.109340E+00  3.006928E+00  2.910755E+00  2.820268E+00  2.734976E+00  2.654443E+00  2.578284E+00  2.506151E+00  2.437736E+00  2.372758E+00
 2.310968E+00  2.252139E+00  2.196064E+00  2.142557E+00  2.091449E+00  2.042584E+00  1.995820E+00  1.951028E+00  1.908089E+00  1.866894E+00
 1.827340E+00  1.789336E+00  1.752795E+00  1.717637E+00  1.683790E+00  1.651183E+00  1.619754E+00  1.589443E+00  1.560194E+00  1.531957E+00
 1.504682E+00  1.478325E+00  1.452843E+00  1.428197E+00  1.404348E+00  1.381263E+00  1.358908E+00  1.337252E+00  1.316266E+00  1.295921E+00
 1.276193E+00  1.257056E+00  1.238486E+00  1.220463E+00  1.202964E+00  1.185970E+00  1.169462E+00  1.153421E+00  1.137832E+00  1.122678E+00
 1.107943E+00  1.093613E+00  1.079674E+00  1.066111E+00  1.052914E+00  1.040069E+00  1.027565E+00  1.015391E+00  1.003536E+00  9.919903E-01
 9.807443E-01  9.697886E-01  9.591145E-01  9.487138E-01  9.385788E-01  9.287025E-01  9.190788E-01  9.097032E-01  9.005726E-01  8.916797E-01
 9.589145E+01  6.511227E+01  3.948661E+01  2.788358E+01  2.156493E+01  1.760465E+01  1.488210E+01  1.289080E+01  1.136918E+01  1.016791E+01
 9.195152E+00  8.391230E+00  7.715602E+00  7.139755E+00  6.643051E+00  6.210175E+00  5.829528E+00  5.492162E+00  5.191063E+00  4.920657E+00
 4.676458E+00  4.454814E+00  4.252723E+00  4.067694E+00  3.897642E+00  3.740811E+00  3.595709E+00  3.461060E+00  3.335770E+00  3.218891E+00
 3.109600E+00  3.007179E+00  2.910998E+00  2.820503E+00  2.735204E+00  2.654665E+00  2.578499E+00  2.506361E+00  2.437939E+00  2.372956E+00
 2.311161E+00  2.252327E+00  2.196247E+00  2.142736E+00  2.091623E+00  2.042754E+00  1.995987E+00  1.951191E+00  1.908249E+00  1.867049E+00
 1.827493E+00  1.789485E+00  1.752941E+00  1.717781E+00  1.683930E+00  1.651321E+00  1.619889E+00  1.589575E+00  1.560324E+00  1.532085E+00
 1.504808E+00  1.478448E+00  1.452964E+00  1.428316E+00  1.404466E+00  1.381378E+00  1.359021E+00  1.337364E+00  1.316375E+00  1.296029E+00
 1.276299E+00  1.257161E+00  1.238590E+00  1.220564E+00  1.203064E+00  1.186069E+00  1.169559E+00  1.153518E+00  1.137927E+00  1.122772E+00
 1.108036E+00  1.093704E+00  1.079764E+00  1.066200E+00  1.053002E+00  1.040156E+00  1.027651E+00  1.015476E+00  1.003620E+00  9.920731E-01
 9.808260E-01  9.698694E-01  9.591944E-01  9.487927E-01  9.386566E-01  9.287789E-01  9.191534E-01  9.097750E-01  9.006394E-01  8.917378E-01
 1.297339E+02  7.931027E+01  4.178929E+01  2.840530E+01  2.169583E+01  1.763954E+01  1.489218E+01  1.289425E+01  1.137078E+01  1.016893E+01
 9.195968E+00  8.391944E+00  7.716249E+00  7.140353E+00  6.643606E+00  6.210694E+00  5.830015E+00  5.492620E+00  5.191496E+00  4.921068E+00
 4.676848E+00  4.455186E+00  4.253078E+00  4.068033E+00  3.897968E+00  3.741123E+00  3.596009E+00  3.461349E+00  3.336048E+00  3.219159E+00
 3.109859E+00  3.007430E+00  2.911241E+00  2.820739E+00  2.735432E+00  2.654886E+00  2.578714E+00  2.506570E+00  2.438143E+00  2.373154E+00
 2.311354E+00  2.252515E+00  2.196430E+00  2.142915E+00  2.091798E+00  2.042924E+00  1.996153E+00  1.951354E+00  1.908408E+00  1.867205E+00
 1.827645E+00  1.789634E+00  1.753087E+00  1.717924E+00  1.684070E+00  1.651458E+00  1.620024E+00  1.589708E+00  1.560454E+00  1.532212E+00
 1.504933E+00  1.478572E+00  1.453085E+00  1.428435E+00  1.404583E+00  1.381494E+00  1.359135E+00  1.337475E+00  1.316485E+00  1.296137E+00
 1.276406E+00  1.257265E+00  1.238693E+00  1.220666E+00  1.203164E+00  1.186167E+00  1.169657E+00  1.153614E+00  1.138022E+00  1.122865E+00
 1.108128E+00  1.093796E+00  1.079854E+00  1.066289E+00  1.053090E+00  1.040243E+00  1.027736E+00  1.015560E+00  1.003703E+00  9.921558E-01
 9.809078E-01  9.699502E-01  9.592742E-01  9.488715E-01  9.387342E-01  9.288551E-01  9.192277E-01  9.098464E-01  9.007059E-01  8.917972E-01
 1.517581E+02  8.914252E+01  4.376139E+01  2.885568E+01  2.180824E+01  1.766952E+01  1.490096E+01  1.289735E+01  1.137227E+01  1.016993E+01
 9.196776E+00  8.392655E+00  7.716896E+00  7.140949E+00  6.644160E+00  6.211212E+00  5.830501E+00  5.493078E+00  5.191929E+00  4.921478E+00
 4.677238E+00  4.455557E+00  4.253433E+00  4.068373E+00  3.898293E+00  3.741435E+00  3.596309E+00  3.461638E+00  3.336327E+00  3.219428E+00
 3.110119E+00  3.007681E+00  2.911484E+00  2.820974E+00  2.735660E+00  2.655108E+00  2.578929E+00  2.506779E+00  2.438346E+00  2.373352E+00
 2.311547E+00  2.252702E+00  2.196614E+00  2.143093E+00  2.091972E+00  2.043095E+00  1.996320E+00  1.951517E+00  1.908567E+00  1.867361E+00
 1.827797E+00  1.789784E+00  1.753233E+00  1.718067E+00  1.684211E+00  1.651596E+00  1.620159E+00  1.589840E+00  1.560585E+00  1.532340E+00
 1.505059E+00  1.478695E+00  1.453207E+00  1.428554E+00  1.404700E+00  1.381609E+00  1.359248E+00  1.337587E+00  1.316595E+00  1.296246E+00
 1.276512E+00  1.257370E+00  1.238796E+00  1.220768E+00  1.203265E+00  1.186266E+00  1.169754E+00  1.153710E+00  1.138117E+00  1.122959E+00
 1.108220E+00  1.093887E+00  1.079944E+00  1.066378E+00  1.053177E+00  1.040329E+00  1.027822E+00  1.015645E+00  1.003787E+00  9.922384E-01
 9.809895E-01  9.700309E-01  9.593539E-01  9.489502E-01  9.388117E-01  9.289312E-01  9.193018E-01  9.099174E-01  9.007722E-01  8.918575E-01
 1.649802E+02  9.532682E+01  4.517734E+01  2.918566E+01  2.189079E+01  1.769175E+01  1.490767E+01  1.289989E+01  1.137362E+01  1.017088E+01
 9.197573E+00  8.393363E+00  7.717542E+00  7.141545E+00  6.644715E+00  6.211730E+00  5.830987E+00  5.493537E+00  5.192362E+00  4.921889E+00
 4.677628E+00  4.455929E+00  4.253787E+00  4.068712E+00  3.898618E+00  3.741747E+00  3.596609E+00  3.461926E+00  3.336605E+00  3.219696E+00
 3.110378E+00  3.007932E+00  2.911727E+00  2.821209E+00  2.735888E+00  2.655329E+00  2.579144E+00  2.506988E+00  2.438549E+00  2.373550E+00
 2.311740E+00  2.252890E+00  2.196797E+00  2.143272E+00  2.092147E+00  2.043265E+00  1.996486E+00  1.951679E+00  1.908726E+00  1.867516E+00
 1.827950E+00  1.789933E+00  1.753380E+00  1.718210E+00  1.684351E+00  1.651734E+00  1.620294E+00  1.589973E+00  1.560715E+00  1.532468E+00
 1.505184E+00  1.478818E+00  1.453328E+00  1.428673E+00  1.404817E+00  1.381724E+00  1.359361E+00  1.337698E+00  1.316705E+00  1.296354E+00
 1.276619E+00  1.257475E+00  1.238899E+00  1.220870E+00  1.203365E+00  1.186365E+00  1.169852E+00  1.153806E+00  1.138212E+00  1.123053E+00
 1.108313E+00  1.093978E+00  1.080034E+00  1.066467E+00  1.053265E+00  1.040416E+00  1.027908E+00  1.015729E+00  1.003871E+00  9.923211E-01
 9.810711E-01  9.701116E-01  9.594337E-01  9.490288E-01  9.388892E-01  9.290071E-01  9.193756E-01  9.099882E-01  9.008384E-01  8.919184E-01
 1.711824E+02  9.831354E+01  4.591400E+01  2.936065E+01  2.193515E+01  1.770413E+01  1.491179E+01  1.290173E+01  1.137477E+01  1.017179E+01
 9.198354E+00  8.394067E+00  7.718187E+00  7.142141E+00  6.645269E+00  6.212248E+00  5.831474E+00  5.493995E+00  5.192795E+00  4.922299E+00
 4.678018E+00  4.456300E+00  4.254142E+00  4.069051E+00  3.898943E+00  3.742059E+00  3.596908E+00  3.462215E+00  3.336883E+00  3.219965E+00
 3.110637E+00  3.008182E+00  2.911970E+00  2.821444E+00  2.736116E+00  2.655551E+00  2.579359E+00  2.507197E+00  2.438752E+00  2.373748E+00
 2.311932E+00  2.253078E+00  2.196980E+00  2.143451E+00  2.092321E+00  2.043435E+00  1.996652E+00  1.951842E+00  1.908885E+00  1.867672E+00
 1.828102E+00  1.790082E+00  1.753526E+00  1.718353E+00  1.684492E+00  1.651871E+00  1.620429E+00  1.590105E+00  1.560845E+00  1.532595E+00
 1.505309E+00  1.478941E+00  1.453449E+00  1.428792E+00  1.404934E+00  1.381839E+00  1.359475E+00  1.337809E+00  1.316814E+00  1.296461E+00
 1.276725E+00  1.257580E+00  1.239003E+00  1.220971E+00  1.203465E+00  1.186464E+00  1.169949E+00  1.153902E+00  1.138307E+00  1.123146E+00
 1.108405E+00  1.094069E+00  1.080124E+00  1.066556E+00  1.053353E+00  1.040503E+00  1.027993E+00  1.015814E+00  1.003954E+00  9.924037E-01
 9.811528E-01  9.701923E-01  9.595133E-01  9.491075E-01  9.389666E-01  9.290830E-01  9.194494E-01  9.100588E-01  9.009045E-01  8.919796E-01
 1.711901E+02  9.831895E+01  4.591735E+01  2.936294E+01  2.193691E+01  1.770557E+01  1.491301E+01  1.290280E+01  1.137572E+01  1.017263E+01
 9.199120E+00  8.394766E+00  7.718830E+00  7.142736E+00  6.645823E+00  6.212766E+00  5.831960E+00  5.494452E+00  5.193228E+00  4.922709E+00
 4.678408E+00  4.456672E+00  4.254496E+00  4.069390E+00  3.899268E+00  3.742371E+00  3.597208E+00  3.462503E+00  3.337161E+00  3.220233E+00
 3.110896E+00  3.008433E+00  2.912212E+00  2.821679E+00  2.736344E+00  2.655772E+00  2.579574E+00  2.507405E+00  2.438956E+00  2.373946E+00
 2.312125E+00  2.253266E+00  2.197163E+00  2.143629E+00  2.092495E+00  2.043606E+00  1.996819E+00  1.952004E+00  1.909044E+00  1.867828E+00
 1.828254E+00  1.790231E+00  1.753672E+00  1.718497E+00  1.684632E+00  1.652009E+00  1.620564E+00  1.590238E+00  1.560975E+00  1.532723E+00
 1.505435E+00  1.479064E+00  1.453570E+00  1.428911E+00  1.405051E+00  1.381954E+00  1.359588E+00  1.337921E+00  1.316924E+00  1.296569E+00
 1.276831E+00  1.257684E+00  1.239106E+00  1.221073E+00  1.203565E+00  1.186563E+00  1.170046E+00  1.153998E+00  1.138401E+00  1.123240E+00
 1.108497E+00  1.094160E+00  1.080214E+00  1.066645E+00  1.053441E+00  1.040589E+00  1.028079E+00  1.015899E+00  1.004038E+00  9.924862E-01
 9.812344E-01  9.702729E-01  9.595930E-01  9.491860E-01  9.390439E-01  9.291588E-01  9.195231E-01  9.101294E-01  9.009706E-01  8.920408E-01
 1.650029E+02  9.534279E+01  4.518719E+01  2.919248E+01  2.189606E+01  1.769607E+01  1.491135E+01  1.290309E+01  1.137645E+01  1.017342E+01
 9.199870E+00  8.395461E+00  7.719471E+00  7.143331E+00  6.646376E+00  6.213283E+00  5.832445E+00  5.494910E+00  5.193660E+00  4.923119E+00
 4.678798E+00  4.457043E+00  4.254851E+00  4.069729E+00  3.899592E+00  3.742683E+00  3.597508E+00  3.462792E+00  3.337439E+00  3.220501E+00
 3.111155E+00  3.008683E+00  2.912455E+00  2.821914E+00  2.736572E+00  2.655993E+00  2.579789E+00  2.507614E+00  2.439159E+00  2.374143E+00
 2.312317E+00  2.253453E+00  2.197345E+00  2.143808E+00  2.092669E+00  2.043776E+00  1.996985E+00  1.952167E+00  1.909203E+00  1.867983E+00
 1.828406E+00  1.790380E+00  1.753818E+00  1.718640E+00  1.684772E+00  1.652146E+00  1.620699E+00  1.590370E+00  1.561104E+00  1.532851E+00
 1.505560E+00  1.479187E+00  1.453691E+00  1.429030E+00  1.405168E+00  1.382069E+00  1.359701E+00  1.338032E+00  1.317033E+00  1.296677E+00
 1.276937E+00  1.257789E+00  1.239209E+00  1.221175E+00  1.203665E+00  1.186661E+00  1.170144E+00  1.154094E+00  1.138496E+00  1.123333E+00
 1.108590E+00  1.094251E+00  1.080303E+00  1.066733E+00  1.053528E+00  1.040676E+00  1.028164E+00  1.015983E+00  1.004121E+00  9.925688E-01
 9.813159E-01  9.703535E-01  9.596726E-01  9.492646E-01  9.391213E-01  9.292346E-01  9.195968E-01  9.101999E-01  9.010367E-01  8.921020E-01
 1.517940E+02  8.916788E+01  4.377730E+01  2.886690E+01  2.181698E+01  1.767671E+01  1.490709E+01  1.290268E+01  1.137699E+01  1.017416E+01
 9.200605E+00  8.396151E+00  7.720112E+00  7.143925E+00  6.646929E+00  6.213800E+00  5.832931E+00  5.495367E+00  5.194093E+00  4.923529E+00
 4.679187E+00  4.457414E+00  4.255205E+00  4.070068E+00  3.899917E+00  3.742994E+00  3.597807E+00  3.463080E+00  3.337716E+00  3.220769E+00
 3.111414E+00  3.008934E+00  2.912697E+00  2.822149E+00  2.736800E+00  2.656214E+00  2.580003E+00  2.507823E+00  2.439361E+00  2.374341E+00
 2.312510E+00  2.253641E+00  2.197528E+00  2.143986E+00  2.092843E+00  2.043946E+00  1.997151E+00  1.952329E+00  1.909362E+00  1.868138E+00
 1.828558E+00  1.790529E+00  1.753963E+00  1.718782E+00  1.684912E+00  1.652284E+00  1.620834E+00  1.590502E+00  1.561234E+00  1.532978E+00
 1.505685E+00  1.479310E+00  1.453812E+00  1.429149E+00  1.405284E+00  1.382184E+00  1.359814E+00  1.338143E+00  1.317143E+00  1.296785E+00
 1.277044E+00  1.257894E+00  1.239312E+00  1.221276E+00  1.203766E+00  1.186760E+00  1.170241E+00  1.154190E+00  1.138591E+00  1.123426E+00
 1.108682E+00  1.094342E+00  1.080393E+00  1.066822E+00  1.053616E+00  1.040762E+00  1.028250E+00  1.016068E+00  1.004205E+00  9.926513E-01
 9.813975E-01  9.704341E-01  9.597522E-01  9.493431E-01  9.391986E-01  9.293105E-01  9.196706E-01  9.102706E-01  9.011028E-01  8.921627E-01
 1.297795E+02  7.934311E+01  4.181063E+01  2.842076E+01  2.170799E+01  1.764960E+01  1.490076E+01  1.290172E+01  1.137739E+01  1.017485E+01
 9.201328E+00  8.396838E+00  7.720751E+00  7.144519E+00  6.647482E+00  6.214317E+00  5.833416E+00  5.495825E+00  5.194525E+00  4.923939E+00
 4.679577E+00  4.457785E+00  4.255559E+00  4.070406E+00  3.900241E+00  3.743306E+00  3.598106E+00  3.463368E+00  3.337994E+00  3.221037E+00
 3.111673E+00  3.009184E+00  2.912939E+00  2.822384E+00  2.737027E+00  2.656435E+00  2.580218E+00  2.508031E+00  2.439564E+00  2.374538E+00
 2.312702E+00  2.253828E+00  2.197711E+00  2.144164E+00  2.093017E+00  2.044116E+00  1.997317E+00  1.952492E+00  1.909520E+00  1.868294E+00
 1.828711E+00  1.790678E+00  1.754109E+00  1.718925E+00  1.685052E+00  1.652421E+00  1.620968E+00  1.590634E+00  1.561364E+00  1.533105E+00
 1.505810E+00  1.479433E+00  1.453932E+00  1.429267E+00  1.405401E+00  1.382299E+00  1.359927E+00  1.338255E+00  1.317252E+00  1.296893E+00
 1.277150E+00  1.257998E+00  1.239415E+00  1.221378E+00  1.203866E+00  1.186859E+00  1.170338E+00  1.154286E+00  1.138685E+00  1.123520E+00
 1.108774E+00  1.094433E+00  1.080483E+00  1.066911E+00  1.053703E+00  1.040849E+00  1.028335E+00  1.016152E+00  1.004288E+00  9.927337E-01
 9.814790E-01  9.705146E-01  9.598317E-01  9.494216E-01  9.392760E-01  9.293864E-01  9.197444E-01  9.103415E-01  9.011689E-01  8.922229E-01
 9.594048E+01  6.514966E+01  3.951270E+01  2.790311E+01  2.158049E+01  1.761757E+01  1.489313E+01  1.290041E+01  1.137768E+01  1.017552E+01
 9.202045E+00  8.397523E+00  7.721389E+00  7.145112E+00  6.648035E+00  6.214834E+00  5.833902E+00  5.496282E+00  5.194957E+00  4.924348E+00