# vtk DataFile Version 2.0
PFLOTRAN output
ASCII
DATASET UNSTRUCTURED_GRID
POINTS          462 float
 0.000000E+00  0.000000E+00  0.000000E+00
 2.000000E+03  0.000000E+00  0.000000E+00
 4.000000E+03  0.000000E+00  0.000000E+00
 6.000000E+03  0.000000E+00  0.000000E+00
 8.000000E+03  0.000000E+00  0.000000E+00
 1.000000E+04  0.000000E+00  0.000000E+00
 1.200000E+04  0.000000E+00  0.000000E+00
 1.400000E+04  0.000000E+00  0.000000E+00
 1.600000E+04  0.000000E+00  0.000000E+00
 1.800000E+04  0.000000E+00  0.000000E+00
 2.000000E+04  0.000000E+00  0.000000E+00
 0.000000E+00  1.000000E+00  0.000000E+00
 2.000000E+03  1.000000E+00  0.000000E+00
 4.000000E+03  1.000000E+00  0.000000E+00
 6.000000E+03  1.000000E+00  0.000000E+00
 8.000000E+03  1.000000E+00  0.000000E+00
 1.000000E+04  1.000000E+00  0.000000E+00
 1.200000E+04  1.000000E+00  0.000000E+00
 1.400000E+04  1.000000E+00  0.000000E+00
 1.600000E+04  1.000000E+00  0.000000E+00
 1.800000E+04  1.000000E+00  0.000000E+00
 2.000000E+04  1.000000E+00  0.000000E+00
 0.000000E+00  0.000000E+00  5.000000E+00
 2.000000E+03  0.000000E+00  5.000000E+00
 4.000000E+03  0.000000E+00  5.000000E+00
 6.000000E+03  0.000000E+00  5.000000E+00
 8.000000E+03  0.000000E+00  5.000000E+00
 1.000000E+04  0.000000E+00  5.000000E+00
 1.200000E+04  0.000000E+00  5.000000E+00
 1.400000E+04  0.000000E+00  5.000000E+00
 1.600000E+04  0.000000E+00  5.000000E+00
 1.800000E+04  0.000000E+00  5.000000E+00
 2.000000E+04  0.000000E+00  5.000000E+00
 0.000000E+00  1.000000E+00  5.000000E+00
 2.000000E+03  1.000000E+00  5.000000E+00
 4.000000E+03  1.000000E+00  5.000000E+00
 6.000000E+03  1.000000E+00  5.000000E+00
 8.000000E+03  1.000000E+00  5.000000E+00
 1.000000E+04  1.000000E+00  5.000000E+00
 1.200000E+04  1.000000E+00  5.000000E+00
 1.400000E+04  1.000000E+00  5.000000E+00
 1.600000E+04  1.000000E+00  5.000000E+00
 1.800000E+04  1.000000E+00  5.000000E+00
 2.000000E+04  1.000000E+00  5.000000E+00
 0.000000E+00  0.000000E+00  1.000000E+01
 2.000000E+03  0.000000E+00  1.000000E+01
 4.000000E+03  0.000000E+00  1.000000E+01
 6.000000E+03  0.000000E+00  1.000000E+01
 8.000000E+03  0.000000E+00  1.000000E+01
 1.000000E+04  0.000000E+00  1.000000E+01
 1.200000E+04  0.000000E+00  1.000000E+01
 1.400000E+04  0.000000E+00  1.000000E+01
 1.600000E+04  0.000000E+00  1.000000E+01
 1.800000E+04  0.000000E+00  1.000000E+01
 2.000000E+04  0.000000E+00  1.000000E+01
 0.000000E+00  1.000000E+00  1.000000E+01
 2.000000E+03  1.000000E+00  1.000000E+01
 4.000000E+03  1.000000E+00  1.000000E+01
 6.000000E+03  1.000000E+00  1.000000E+01
 8.000000E+03  1.000000E+00  1.000000E+01
 1.000000E+04  1.000000E+00  1.000000E+01
 1.200000E+04  1.000000E+00  1.000000E+01
 1.400000E+04  1.000000E+00  1.000000E+01
 1.600000E+04  1.000000E+00  1.000000E+01
 1.800000E+04  1.000000E+00  1.000000E+01
 2.000000E+04  1.000000E+00  1.000000E+01
 0.000000E+00  0.000000E+00  1.500000E+01
 2.000000E+03  0.000000E+00  1.500000E+01
 4.000000E+03  0.000000E+00  1.500000E+01
 6.000000E+03  0.000000E+00  1.500000E+01
 8.000000E+03  0.000000E+00  1.500000E+01
 1.000000E+04  0.000000E+00  1.500000E+01
 1.200000E+04  0.000000E+00  1.500000E+01
 1.400000E+04  0.000000E+00  1.500000E+01
 1.600000E+04  0.000000E+00  1.500000E+01
 1.800000E+04  0.000000E+00  1.500000E+01
 2.000000E+04  0.000000E+00  1.500000E+01
 0.000000E+00  1.000000E+00  1.500000E+01
 2.000000E+03  1.000000E+00  1.500000E+01
 4.000000E+03  1.000000E+00  1.500000E+01
 6.000000E+03  1.000000E+00  1.500000E+01
 8.000000E+03  1.000000E+00  1.500000E+01
 1.000000E+04  1.000000E+00  1.500000E+01
 1.200000E+04  1.000000E+00  1.500000E+01
 1.400000E+04  1.000000E+00  1.500000E+01
 1.600000E+04  1.000000E+00  1.500000E+01
 1.800000E+04  1.000000E+00  1.500000E+01
 2.000000E+04  1.000000E+00  1.500000E+01
 0.000000E+00  0.000000E+00  2.000000E+01
 2.000000E+03  0.000000E+00  2.000000E+01
 4.000000E+03  0.000000E+00  2.000000E+01
 6.000000E+03  0.000000E+00  2.000000E+01
 8.000000E+03  0.000000E+00  2.000000E+01
 1.000000E+04  0.000000E+00  2.000000E+01
 1.200000E+04  0.000000E+00  2.000000E+01
 1.400000E+04  0.000000E+00  2.000000E+01
 1.600000E+04  0.000000E+00  2.000000E+01
 1.800000E+04  0.000000E+00  2.000000E+01
 2.000000E+04  0.000000E+00  2.000000E+01
 0.000000E+00  1.000000E+00  2.000000E+01
 2.000000E+03  1.000000E+00  2.000000E+01
 4.000000E+03  1.000000E+00  2.000000E+01
 6.000000E+03  1.000000E+00  2.000000E+01
 8.000000E+03  1.000000E+00  2.000000E+01
 1.000000E+04  1.000000E+00  2.000000E+01
 1.200000E+04  1.000000E+00  2.000000E+01
 1.400000E+04  1.000000E+00  2.000000E+01
 1.600000E+04  1.000000E+00  2.000000E+01
 1.800000E+04  1.000000E+00  2.000000E+01
 2.000000E+04  1.000000E+00  2.000000E+01
 0.000000E+00  0.000000E+00  2.500000E+01
 2.000000E+03  0.000000E+00  2.500000E+01
 4.000000E+03  0.000000E+00  2.500000E+01
 6.000000E+03  0.000000E+00  2.500000E+01
 8.000000E+03  0.000000E+00  2.500000E+01
 1.000000E+04  0.000000E+00  2.500000E+01
 1.200000E+04  0.000000E+00  2.500000E+01
 1.400000E+04  0.000000E+00  2.500000E+01
 1.600000E+04  0.000000E+00  2.500000E+01
 1.800000E+04  0.000000E+00  2.500000E+01
 2.000000E+04  0.000000E+00  2.500000E+01
 0.000000E+00  1.000000E+00  2.500000E+01
 2.000000E+03  1.000000E+00  2.500000E+01
 4.000000E+03  1.000000E+00  2.500000E+01
 6.000000E+03  1.000000E+00  2.500000E+01
 8.000000E+03  1.000000E+00  2.500000E+01
 1.000000E+04  1.000000E+00  2.500000E+01
 1.200000E+04  1.000000E+00  2.500000E+01
 1.400000E+04  1.000000E+00  2.500000E+01
 1.600000E+04  1.000000E+00  2.500000E+01
 1.800000E+04  1.000000E+00  2.500000E+01
 2.000000E+04  1.000000E+00  2.500000E+01
 0.000000E+00  0.000000E+00  3.000000E+01
 2.000000E+03  0.000000E+00  3.000000E+01
 4.000000E+03  0.000000E+00  3.000000E+01
 6.000000E+03  0.000000E+00  3.000000E+01
 8.000000E+03  0.000000E+00  3.000000E+01
 1.000000E+04  0.000000E+00  3.000000E+01
 1.200000E+04  0.000000E+00  3.000000E+01
 1.400000E+04  0.000000E+00  3.000000E+01
 1.600000E+04  0.000000E+00  3.000000E+01
 1.800000E+04  0.000000E+00  3.000000E+01
 2.000000E+04  0.000000E+00  3.000000E+01
 0.000000E+00  1.000000E+00  3.000000E+01
 2.000000E+03  1.000000E+00  3.000000E+01
 4.000000E+03  1.000000E+00  3.000000E+01
 6.000000E+03  1.000000E+00  3.000000E+01
 8.000000E+03  1.000000E+00  3.000000E+01
 1.000000E+04  1.000000E+00  3.000000E+01
 1.200000E+04  1.000000E+00  3.000000E+01
 1.400000E+04  1.000000E+00  3.000000E+01
 1.600000E+04  1.000000E+00  3.000000E+01
 1.800000E+04  1.000000E+00  3.000000E+01
 2.000000E+04  1.000000E+00  3.000000E+01
 0.000000E+00  0.000000E+00  3.500000E+01
 2.000000E+03  0.000000E+00  3.500000E+01
 4.000000E+03  0.000000E+00  3.500000E+01
 6.000000E+03  0.000000E+00  3.500000E+01
 8.000000E+03  0.000000E+00  3.500000E+01
 1.000000E+04  0.000000E+00  3.500000E+01
 1.200000E+04  0.000000E+00  3.500000E+01
 1.400000E+04  0.000000E+00  3.500000E+01
 1.600000E+04  0.000000E+00  3.500000E+01
 1.800000E+04  0.000000E+00  3.500000E+01
 2.000000E+04  0.000000E+00  3.500000E+01
 0.000000E+00  1.000000E+00  3.500000E+01
 2.000000E+03  1.000000E+00  3.500000E+01
 4.000000E+03  1.000000E+00  3.500000E+01
 6.000000E+03  1.000000E+00  3.500000E+01
 8.000000E+03  1.000000E+00  3.500000E+01
 1.000000E+04  1.000000E+00  3.500000E+01
 1.200000E+04  1.000000E+00  3.500000E+01
 1.400000E+04  1.000000E+00  3.500000E+01
 1.600000E+04  1.000000E+00  3.500000E+01
 1.800000E+04  1.000000E+00  3.500000E+01
 2.000000E+04  1.000000E+00  3.500000E+01
 0.000000E+00  0.000000E+00  4.000000E+01
 2.000000E+03  0.000000E+00  4.000000E+01
 4.000000E+03  0.000000E+00  4.000000E+01
 6.000000E+03  0.000000E+00  4.000000E+01
 8.000000E+03  0.000000E+00  4.000000E+01
 1.000000E+04  0.000000E+00  4.000000E+01
 1.200000E+04  0.000000E+00  4.000000E+01
 1.400000E+04  0.000000E+00  4.000000E+01
 1.600000E+04  0.000000E+00  4.000000E+01
 1.800000E+04  0.000000E+00  4.000000E+01
 2.000000E+04  0.000000E+00  4.000000E+01
 0.000000E+00  1.000000E+00  4.000000E+01
 2.000000E+03  1.000000E+00  4.000000E+01
 4.000000E+03  1.000000E+00  4.000000E+01
 6.000000E+03  1.000000E+00  4.000000E+01
 8.000000E+03  1.000000E+00  4.000000E+01
 1.000000E+04  1.000000E+00  4.000000E+01
 1.200000E+04  1.000000E+00  4.000000E+01
 1.400000E+04  1.000000E+00  4.000000E+01
 1.600000E+04  1.000000E+00  4.000000E+01
 1.800000E+04  1.000000E+00  4.000000E+01
 2.000000E+04  1.000000E+00  4.000000E+01
 0.000000E+00  0.000000E+00  4.500000E+01
 2.000000E+03  0.000000E+00  4.500000E+01
 4.000000E+03  0.000000E+00  4.500000E+01
 6.000000E+03  0.000000E+00  4.500000E+01
 8.000000E+03  0.000000E+00  4.500000E+01
 1.000000E+04  0.000000E+00  4.500000E+01
 1.200000E+04  0.000000E+00  4.500000E+01
 1.400000E+04  0.000000E+00  4.500000E+01
 1.600000E+04  0.000000E+00  4.500000E+01
 1.800000E+04  0.000000E+00  4.500000E+01
 2.000000E+04  0.000000E+00  4.500000E+01
 0.000000E+00  1.000000E+00  4.500000E+01
 2.000000E+03  1.000000E+00  4.500000E+01
 4.000000E+03  1.000000E+00  4.500000E+01
 6.000000E+03  1.000000E+00  4.500000E+01
 8.000000E+03  1.000000E+00  4.500000E+01
 1.000000E+04  1.000000E+00  4.500000E+01
 1.200000E+04  1.000000E+00  4.500000E+01
 1.400000E+04  1.000000E+00  4.500000E+01
 1.600000E+04  1.000000E+00  4.500000E+01
 1.800000E+04  1.000000E+00  4.500000E+01
 2.000000E+04  1.000000E+00  4.500000E+01
 0.000000E+00  0.000000E+00  5.000000E+01
 2.000000E+03  0.000000E+00  5.000000E+01
 4.000000E+03  0.000000E+00  5.000000E+01
 6.000000E+03  0.000000E+00  5.000000E+01
 8.000000E+03  0.000000E+00  5.000000E+01
 1.000000E+04  0.000000E+00  5.000000E+01
 1.200000E+04  0.000000E+00  5.000000E+01
 1.400000E+04  0.000000E+00  5.000000E+01
 1.600000E+04  0.000000E+00  5.000000E+01
 1.800000E+04  0.000000E+00  5.000000E+01
 2.000000E+04  0.000000E+00  5.000000E+01
 0.000000E+00  1.000000E+00  5.000000E+01
 2.000000E+03  1.000000E+00  5.000000E+01
 4.000000E+03  1.000000E+00  5.000000E+01
 6.000000E+03  1.000000E+00  5.000000E+01
[...]
CELL_DATA      200
SCALARS Porosity             float 1
LOOKUP_TABLE default
 4.377100E-01  4.377099E-01  4.377099E-01  4.377099E-01  4.377099E-01  4.377099E-01  4.377099E-01  4.377099E-01  4.377099E-01  4.377099E-01
 4.377100E-01  4.377099E-01  4.377099E-01  4.377099E-01  4.377099E-01  4.377099E-01  4.377099E-01  4.377099E-01  4.377099E-01  4.377099E-01
 4.377100E-01  4.377099E-01  4.377099E-01  4.377099E-01  4.377099E-01  4.377099E-01  4.377099E-01  4.377099E-01  4.377099E-01  4.377099E-01
 4.377100E-01  4.377099E-01  4.377099E-01  4.377099E-01  4.377099E-01  4.377099E-01  4.377099E-01  4.377099E-01  4.377099E-01  4.377099E-01
 4.377100E-01  4.377099E-01  4.377099E-01  4.377099E-01  4.377099E-01  4.377099E-01  4.377099E-01  4.377099E-01  4.377099E-01  4.377099E-01
 4.377100E-01  4.377099E-01  4.377099E-01  4.377099E-01  4.377099E-01  4.377099E-01  4.377099E-01  4.377099E-01  4.377099E-01  4.377099E-01
 4.377097E-01  4.377099E-01  4.377099E-01  4.377099E-01  4.377099E-01  4.377099E-01  4.377099E-01  4.377099E-01  4.377099E-01  4.377099E-01
 4.377097E-01  4.377099E-01  4.377099E-01  4.377099E-01  4.377099E-01  4.377099E-01  4.377099E-01  4.377099E-01  4.377099E-01  4.377099E-01
 4.377097E-01  4.377099E-01  4.377099E-01  4.377099E-01  4.377099E-01  4.377099E-01  4.377099E-01  4.377099E-01  4.377099E-01  4.377099E-01
 4.377097E-01  4.377099E-01  4.377099E-01  4.377099E-01  4.377099E-01  4.377099E-01  4.377099E-01  4.377099E-01  4.377099E-01  4.377099E-01
 4.377097E-01  4.377100E-01  4.377099E-01  4.377099E-01  4.377099E-01  4.377099E-01  4.377099E-01  4.377099E-01  4.377099E-01  4.377099E-01
 4.377097E-01  4.377100E-01  4.377099E-01  4.377099E-01  4.377099E-01  4.377099E-01  4.377099E-01  4.377099E-01  4.377099E-01  4.377099E-01
 4.377097E-01  4.377100E-01  4.377099E-01  4.377099E-01  4.377099E-01  4.377099E-01  4.377099E-01  4.377099E-01  4.377099E-01  4.377099E-01
 4.377097E-01  4.377100E-01  4.377099E-01  4.377099E-01  4.377099E-01  4.377099E-01  4.377099E-01  4.377099E-01  4.377099E-01  4.377099E-01
 4.377100E-01  4.377100E-01  4.377099E-01  4.377099E-01  4.377099E-01  4.377099E-01  4.377099E-01  4.377099E-01  4.377099E-01  4.377099E-01
 4.377100E-01  4.377100E-01  4.377099E-01  4.377099E-01  4.377099E-01  4.377099E-01  4.377099E-01  4.377099E-01  4.377099E-01  4.377099E-01
 4.377100E-01  4.377100E-01  4.377099E-01  4.377099E-01  4.377099E-01  4.377099E-01  4.377099E-01  4.377099E-01  4.377099E-01  4.377099E-01
 4.377100E-01  4.377100E-01  4.377099E-01  4.377099E-01  4.377099E-01  4.377099E-01  4.377099E-01  4.377099E-01  4.377099E-01  4.377099E-01
 4.377100E-01  4.377100E-01  4.377099E-01  4.377099E-01  4.377099E-01  4.377099E-01  4.377099E-01  4.377099E-01  4.377099E-01  4.377099E-01
 4.377100E-01  4.377100E-01  4.377099E-01  4.377099E-01  4.377099E-01  4.377099E-01  4.377099E-01  4.377099E-01  4.377099E-01  4.377099E-01


SCALARS Permeability         float 1
LOOKUP_TABLE default
 8.829803E-13  8.829802E-13  8.829802E-13  8.829802E-13  8.829802E-13  8.829802E-13  8.829802E-13  8.829801E-13  8.829801E-13  8.829801E-13
 8.829803E-13  8.829803E-13  8.829802E-13  8.829802E-13  8.829802E-13  8.829802E-13  8.829802E-13  8.829801E-13  8.829801E-13  8.829801E-13
 8.829803E-13  8.829803E-13  8.829802E-13  8.829802E-13  8.829802E-13  8.829802E-13  8.829802E-13  8.829802E-13  8.829801E-13  8.829801E-13
 8.829803E-13  8.829803E-13  8.829802E-13  8.829802E-13  8.829802E-13  8.829802E-13  8.829802E-13  8.829802E-13  8.829801E-13  8.829801E-13
 8.829803E-13  8.829803E-13  8.829802E-13  8.829802E-13  8.829802E-13  8.829802E-13  8.829802E-13  8.829802E-13  8.829802E-13  8.829801E-13
 8.829803E-13  8.829803E-13  8.829802E-13  8.829802E-13  8.829802E-13  8.829802E-13  8.829802E-13  8.829802E-13  8.829802E-13  8.829802E-13
 8.829791E-13  8.829803E-13  8.829802E-13  8.829802E-13  8.829802E-13  8.829802E-13  8.829802E-13  8.829802E-13  8.829802E-13  8.829802E-13
 8.829791E-13  8.829803E-13  8.829802E-13  8.829802E-13  8.829802E-13  8.829802E-13  8.829802E-13  8.829802E-13  8.829802E-13  8.829802E-13
 8.829791E-13  8.829803E-13  8.829802E-13  8.829802E-13  8.829802E-13  8.829802E-13  8.829802E-13  8.829802E-13  8.829802E-13  8.829802E-13
 8.829791E-13  8.829803E-13  8.829802E-13  8.829802E-13  8.829802E-13  8.829802E-13  8.829802E-13  8.829802E-13  8.829802E-13  8.829802E-13
 8.829791E-13  8.829803E-13  8.829802E-13  8.829802E-13  8.829802E-13  8.829802E-13  8.829802E-13  8.829802E-13  8.829802E-13  8.829802E-13
 8.829791E-13  8.829803E-13  8.829802E-13  8.829802E-13  8.829802E-13  8.829802E-13  8.829802E-13  8.829802E-13  8.829802E-13  8.829802E-13
 8.829791E-13  8.829803E-13  8.829802E-13  8.829802E-13  8.829802E-13  8.829802E-13  8.829802E-13  8.829802E-13  8.829802E-13  8.829802E-13
 8.829791E-13  8.829803E-13  8.829802E-13  8.829802E-13  8.829802E-13  8.829802E-13  8.829802E-13  8.829802E-13  8.829802E-13  8.829802E-13
 8.829804E-13  8.829803E-13  8.829803E-13  8.829802E-13  8.829802E-13  8.829802E-13  8.829802E-13  8.829802E-13  8.829802E-13  8.829802E-13
 8.829804E-13  8.829803E-13  8.829803E-13  8.829802E-13  8.829802E-13  8.829802E-13  8.829802E-13  8.829802E-13  8.829802E-13  8.829802E-13
 8.829804E-13  8.829803E-13  8.829803E-13  8.829802E-13  8.829802E-13  8.829802E-13  8.829802E-13  8.829802E-13  8.829802E-13  8.829802E-13
 8.829804E-13  8.829803E-13  8.829803E-13  8.829802E-13  8.829802E-13  8.829802E-13  8.829802E-13  8.829802E-13  8.829802E-13  8.829802E-13
 8.829804E-13  8.829803E-13  8.829803E-13  8.829802E-13  8.829802E-13  8.829802E-13  8.829802E-13  8.829802E-13  8.829802E-13  8.829802E-13
 8.829804E-13  8.829803E-13  8.829803E-13  8.829802E-13  8.829802E-13  8.829802E-13  8.829802E-13  8.829802E-13  8.829802E-13  8.829802E-13


SCALARS Liquid_Pressure      float 1
LOOKUP_TABLE default
 8.363950E+06  7.989929E+06  7.813136E+06  7.705495E+06  7.633884E+06  7.584125E+06  7.548449E+06  7.521995E+06  7.501515E+06  7.484755E+06
 8.318781E+06  7.944765E+06  7.767977E+06  7.660338E+06  7.588729E+06  7.538971E+06  7.503296E+06  7.476843E+06  7.456364E+06  7.439604E+06
 8.273619E+06  7.899602E+06  7.722819E+06  7.615182E+06  7.543575E+06  7.493819E+06  7.458144E+06  7.431692E+06  7.411213E+06  7.394454E+06
 8.228462E+06  7.854441E+06  7.677662E+06  7.570028E+06  7.498423E+06  7.448668E+06  7.412994E+06  7.386543E+06  7.366064E+06  7.349305E+06
 8.183311E+06  7.809281E+06  7.632506E+06  7.524875E+06  7.453272E+06  7.403518E+06  7.367845E+06  7.341394E+06  7.320916E+06  7.304158E+06
 8.138167E+06  7.764122E+06  7.587351E+06  7.479723E+06  7.408122E+06  7.358369E+06  7.322697E+06  7.296247E+06  7.275769E+06  7.259012E+06
 8.093028E+06  7.718964E+06  7.542198E+06  7.434573E+06  7.362973E+06  7.313221E+06  7.277550E+06  7.251101E+06  7.230624E+06  7.213867E+06
 8.047884E+06  7.673807E+06  7.497046E+06  7.389423E+06  7.317825E+06  7.268075E+06  7.232405E+06  7.205956E+06  7.185480E+06  7.168723E+06
 8.002733E+06  7.628652E+06  7.451895E+06  7.344275E+06  7.272679E+06  7.222930E+06  7.187261E+06  7.160813E+06  7.140337E+06  7.123581E+06
 7.957577E+06  7.583498E+06  7.406746E+06  7.299129E+06  7.227534E+06  7.177787E+06  7.142118E+06  7.115671E+06  7.095195E+06  7.078439E+06
 7.912415E+06  7.538346E+06  7.361598E+06  7.253983E+06  7.182390E+06  7.132644E+06  7.096977E+06  7.070530E+06  7.050055E+06  7.033299E+06
 7.867247E+06  7.493194E+06  7.316451E+06  7.208839E+06  7.137248E+06  7.087503E+06  7.051837E+06  7.025390E+06  7.004916E+06  6.988161E+06
 7.822073E+06  7.448044E+06  7.271305E+06  7.163696E+06  7.092107E+06  7.042363E+06  7.006697E+06  6.980252E+06  6.959778E+06  6.943023E+06
 7.776893E+06  7.402895E+06  7.226161E+06  7.118554E+06  7.046967E+06  6.997224E+06  6.961560E+06  6.935115E+06  6.914642E+06  6.897887E+06
 7.731708E+06  7.357748E+06  7.181017E+06  7.073414E+06  7.001828E+06  6.952087E+06  6.916423E+06  6.889979E+06  6.869506E+06  6.852752E+06
 7.686528E+06  7.312601E+06  7.135875E+06  7.028275E+06  6.956691E+06  6.906951E+06  6.871288E+06  6.844845E+06  6.824372E+06  6.807619E+06
 7.641355E+06  7.267456E+06  7.090735E+06  6.983137E+06  6.911555E+06  6.861816E+06  6.826154E+06  6.799711E+06  6.779240E+06  6.762486E+06
 7.596187E+06  7.222312E+06  7.045595E+06  6.938000E+06  6.866420E+06  6.816682E+06  6.781021E+06  6.754579E+06  6.734108E+06  6.717355E+06
 7.551025E+06  7.177170E+06  7.000457E+06  6.892865E+06  6.821286E+06  6.771550E+06  6.735890E+06  6.709449E+06  6.688978E+06  6.672225E+06
 7.505870E+06  7.132028E+06  6.955320E+06  6.847730E+06  6.776154E+06  6.726419E+06  6.690760E+06  6.664319E+06  6.643849E+06  6.627097E+06


SCALARS Temperature          float 1
LOOKUP_TABLE default
 1.500505E+02  1.500285E+02  1.500180E+02  1.500116E+02  1.500074E+02  1.500045E+02  1.500023E+02  1.500008E+02  1.499996E+02  1.499986E+02
 1.500505E+02  1.500285E+02  1.500180E+02  1.500116E+02  1.500074E+02  1.500045E+02  1.500023E+02  1.500008E+02  1.499996E+02  1.499986E+02
 1.500505E+02  1.500285E+02  1.500180E+02  1.500116E+02  1.500074E+02  1.500045E+02  1.500023E+02  1.500008E+02  1.499996E+02  1.499986E+02
 1.500505E+02  1.500285E+02  1.500180E+02  1.500116E+02  1.500074E+02  1.500045E+02  1.500023E+02  1.500008E+02  1.499996E+02  1.499986E+02
 1.500505E+02  1.500285E+02  1.500180E+02  1.500116E+02  1.500074E+02  1.500045E+02  1.500023E+02  1.500008E+02  1.499996E+02  1.499986E+02
 1.500505E+02  1.500285E+02  1.500180E+02  1.500117E+02  1.500074E+02  1.500045E+02  1.500023E+02  1.500008E+02  1.499996E+02  1.499986E+02
 1.500502E+02  1.500285E+02  1.500180E+02  1.500117E+02  1.500074E+02  1.500045E+02  1.500023E+02  1.500008E+02  1.499996E+02  1.499986E+02
 1.500503E+02  1.500285E+02  1.500180E+02  1.500117E+02  1.500074E+02  1.500045E+02  1.500023E+02  1.500008E+02  1.499996E+02  1.499986E+02
 1.500503E+02  1.500286E+02  1.500180E+02  1.500117E+02  1.500074E+02  1.500045E+02  1.500023E+02  1.500008E+02  1.499996E+02  1.499986E+02
 1.500503E+02  1.500286E+02  1.500180E+02  1.500117E+02  1.500074E+02  1.500045E+02  1.500024E+02  1.500008E+02  1.499996E+02  1.499986E+02
 1.500503E+02  1.500286E+02  1.500180E+02  1.500117E+02  1.500074E+02  1.500045E+02  1.500024E+02  1.500008E+02  1.499996E+02  1.499986E+02
 1.500504E+02  1.500286E+02  1.500180E+02  1.500117E+02  1.500074E+02  1.500045E+02  1.500024E+02  1.500008E+02  1.499996E+02  1.499986E+02
 1.500504E+02  1.500286E+02  1.500181E+02  1.500117E+02  1.500074E+02  1.500045E+02  1.500024E+02  1.500008E+02  1.499996E+02  1.499986E+02
 1.500504E+02  1.500286E+02  1.500181E+02  1.500117E+02  1.500074E+02  1.500045E+02  1.500024E+02  1.500008E+02  1.499996E+02  1.499986E+02
 1.500508E+02  1.500286E+02  1.500181E+02  1.500117E+02  1.500074E+02  1.500045E+02  1.500024E+02  1.500008E+02  1.499996E+02  1.499986E+02
 1.500508E+02  1.500286E+02  1.500181E+02  1.500117E+02  1.500074E+02  1.500045E+02  1.500024E+02  1.500008E+02  1.499996E+02  1.499986E+02
 1.500507E+02  1.500286E+02  1.500181E+02  1.500117E+02  1.500074E+02  1.500045E+02  1.500024E+02  1.500008E+02  1.499996E+02  1.499986E+02
 1.500507E+02  1.500286E+02  1.500181E+02  1.500117E+02  1.500074E+02  1.500045E+02  1.500024E+02  1.500008E+02  1.499996E+02  1.499986E+02
 1.500507E+02  1.500286E+02  1.500181E+02  1.500117E+02  1.500074E+02  1.500045E+02  1.500024E+02  1.500008E+02  1.499996E+02  1.499986E+02
 1.500507E+02  1.500286E+02  1.500181E+02  1.500117E+02  1.500074E+02  1.500045E+02  1.500024E+02  1.500008E+02  1.499996E+02  1.499986E+02


SCALARS pH                   float 1
LOOKUP_TABLE default
 6.144512E+00  6.144479E+00  6.144464E+00  6.144455E+00  6.144448E+00  6.144444E+00  6.144441E+00  6.144438E+00  6.144437E+00  6.144435E+00
 6.144512E+00  6.144479E+00  6.144464E+00  6.144455E+00  6.144448E+00  6.144444E+00  6.144441E+00  6.144438E+00  6.144437E+00  6.144435E+00
 6.144512E+00  6.144479E+00  6.144464E+00  6.144455E+00  6.144448E+00  6.144444E+00  6.144441E+00  6.144438E+00  6.144437E+00  6.144435E+00
 6.144512E+00  6.144479E+00  6.144464E+00  6.144455E+00  6.144448E+00  6.144444E+00  6.144441E+00  6.144438E+00  6.144437E+00  6.144435E+00
 6.144512E+00  6.144479E+00  6.144464E+00  6.144455E+00  6.144448E+00  6.144444E+00  6.144441E+00  6.144438E+00  6.144437E+00  6.144435E+00
 6.144512E+00  6.144479E+00  6.144464E+00  6.144455E+00  6.144448E+00  6.144444E+00  6.144441E+00  6.144438E+00  6.144437E+00  6.144435E+00
 6.144521E+00  6.144480E+00  6.144464E+00  6.144455E+00  6.144448E+00  6.144444E+00  6.144441E+00  6.144438E+00  6.144437E+00  6.144435E+00
 6.144521E+00  6.144480E+00  6.144464E+00  6.144455E+00  6.144448E+00  6.144444E+00  6.144441E+00  6.144438E+00  6.144437E+00  6.144435E+00
 6.144521E+00  6.144480E+00  6.144464E+00  6.144455E+00  6.144448E+00  6.144444E+00  6.144441E+00  6.144438E+00  6.144437E+00  6.144435E+00
 6.144521E+00  6.144480E+00  6.144464E+00  6.144455E+00  6.144448E+00  6.144444E+00  6.144441E+00  6.144438E+00  6.144437E+00  6.144435E+00
 6.144521E+00  6.144480E+00  6.144464E+00  6.144455E+00  6.144448E+00  6.144444E+00  6.144441E+00  6.144438E+00  6.144437E+00  6.144435E+00
 6.144521E+00  6.144480E+00  6.144464E+00  6.144455E+00  6.144448E+00  6.144444E+00  6.144441E+00  6.144438E+00  6.144437E+00  6.144435E+00
 6.144521E+00  6.144480E+00  6.144464E+00  6.144455E+00  6.144448E+00  6.144444E+00  6.144441E+00  6.144438E+00  6.144437E+00  6.144435E+00
 6.144521E+00  6.144480E+00  6.144464E+00  6.144455E+00  6.144448E+00  6.144444E+00  6.144441E+00  6.144439E+00  6.144437E+00  6.144435E+00
 6.144513E+00  6.144480E+00  6.144464E+00  6.144455E+00  6.144448E+00  6.144444E+00  6.144441E+00  6.144439E+00  6.144437E+00  6.144435E+00
 6.144512E+00  6.144480E+00  6.144464E+00  6.144455E+00  6.144448E+00  6.144444E+00  6.144441E+00  6.144439E+00  6.144437E+00  6.144435E+00
 6.144512E+00  6.144480E+00  6.144464E+00  6.144455E+00  6.144448E+00  6.144444E+00  6.144441E+00  6.144439E+00  6.144437E+00  6.144435E+00
 6.144512E+00  6.144480E+00  6.144464E+00  6.144455E+00  6.144448E+00  6.144444E+00  6.144441E+00  6.144439E+00  6.144437E+00  6.144435E+00
 6.144512E+00  6.144480E+00  6.144464E+00  6.144455E+00  6.144448E+00  6.144444E+00  6.144441E+00  6.144439E+00  6.144437E+00  6.144435E+00
 6.144512E+00  6.144480E+00  6.144464E+00  6.144455E+00  6.144448E+00  6.144444E+00  6.144441E+00  6.144439E+00  6.144437E+00  6.144435E+00


SCALARS Total_H+             float 1
LOOKUP_TABLE default
-3.034431E-03 -3.035178E-03 -3.035536E-03 -3.035756E-03 -3.035902E-03 -3.036005E-03 -3.036078E-03 -3.036132E-03 -3.036174E-03 -3.036207E-03
-3.034431E-03 -3.035177E-03 -3.035536E-03 -3.035755E-03 -3.035902E-03 -3.036004E-03 -3.036077E-03 -3.036132E-03 -3.036173E-03 -3.036207E-03
-3.034431E-03 -3.035177E-03 -3.035535E-03 -3.035754E-03 -3.035901E-03 -3.036003E-03 -3.036077E-03 -3.036131E-03 -3.036172E-03 -3.036206E-03
-3.034430E-03 -3.035176E-03 -3.035534E-03 -3.035753E-03 -3.035900E-03 -3.036002E-03 -3.036076E-03 -3.036130E-03 -3.036172E-03 -3.036205E-03
-3.034430E-03 -3.035175E-03 -3.035533E-03 -3.035753E-03 -3.035899E-03 -3.036002E-03 -3.036075E-03 -3.036130E-03 -3.036171E-03 -3.036205E-03
-3.034430E-03 -3.035174E-03 -3.035533E-03 -3.035752E-03 -3.035899E-03 -3.036001E-03 -3.036075E-03 -3.036129E-03 -3.036171E-03 -3.036204E-03
-3.034474E-03 -3.035173E-03 -3.035532E-03 -3.035751E-03 -3.035898E-03 -3.036000E-03 -3.036074E-03 -3.036128E-03 -3.036170E-03 -3.036203E-03
-3.034473E-03 -3.035173E-03 -3.035531E-03 -3.035751E-03 -3.035897E-03 -3.036000E-03 -3.036073E-03 -3.036127E-03 -3.036169E-03 -3.036203E-03
-3.034471E-03 -3.035172E-03 -3.035530E-03 -3.035750E-03 -3.035897E-03 -3.035999E-03 -3.036073E-03 -3.036127E-03 -3.036169E-03 -3.036202E-03
-3.034470E-03 -3.035171E-03 -3.035530E-03 -3.035749E-03 -3.035896E-03 -3.035998E-03 -3.036072E-03 -3.036126E-03 -3.036168E-03 -3.036201E-03
-3.034469E-03 -3.035170E-03 -3.035529E-03 -3.035748E-03 -3.035895E-03 -3.035998E-03 -3.036071E-03 -3.036125E-03 -3.036167E-03 -3.036201E-03
-3.034468E-03 -3.035169E-03 -3.035528E-03 -3.035748E-03 -3.035895E-03 -3.035997E-03 -3.036070E-03 -3.036125E-03 -3.036167E-03 -3.036200E-03
-3.034467E-03 -3.035169E-03 -3.035528E-03 -3.035747E-03 -3.035894E-03 -3.035996E-03 -3.036070E-03 -3.036124E-03 -3.036166E-03 -3.036199E-03
-3.034466E-03 -3.035168E-03 -3.035527E-03 -3.035746E-03 -3.035893E-03 -3.035996E-03 -3.036069E-03 -3.036123E-03 -3.036165E-03 -3.036199E-03
-3.034415E-03 -3.035167E-03 -3.035526E-03 -3.035746E-03 -3.035892E-03 -3.035995E-03 -3.036068E-03 -3.036123E-03 -3.036165E-03 -3.036198E-03
-3.034414E-03 -3.035166E-03 -3.035525E-03 -3.035745E-03 -3.035892E-03 -3.035994E-03 -3.036068E-03 -3.036122E-03 -3.036164E-03 -3.036198E-03
-3.034414E-03 -3.035165E-03 -3.035525E-03 -3.035744E-03 -3.035891E-03 -3.035994E-03 -3.036067E-03 -3.036121E-03 -3.036163E-03 -3.036197E-03
-3.034414E-03 -3.035165E-03 -3.035524E-03 -3.035743E-03 -3.035890E-03 -3.035993E-03 -3.036066E-03 -3.036121E-03 -3.036163E-03 -3.036196E-03
-3.034414E-03 -3.035164E-03 -3.035523E-03 -3.035743E-03 -3.035890E-03 -3.035992E-03 -3.036066E-03 -3.036120E-03 -3.036162E-03 -3.036196E-03
-3.034413E-03 -3.035163E-03 -3.035522E-03 -3.035742E-03 -3.035889E-03 -3.035991E-03 -3.036065E-03 -3.036119E-03 -3.036161E-03 -3.036195E-03


SCALARS Total_SiO2(aq)       float 1
LOOKUP_TABLE default
 1.039640E-02  1.039451E-02  1.039361E-02  1.039306E-02  1.039269E-02  1.039244E-02  1.039226E-02  1.039213E-02  1.039202E-02  1.039194E-02
 1.039640E-02  1.039451E-02  1.039361E-02  1.039306E-02  1.039269E-02  1.039244E-02  1.039226E-02  1.039213E-02  1.039202E-02  1.039194E-02
 1.039640E-02  1.039451E-02  1.039361E-02  1.039306E-02  1.039270E-02  1.039244E-02  1.039226E-02  1.039213E-02  1.039202E-02  1.039194E-02
 1.039640E-02  1.039451E-02  1.039361E-02  1.039306E-02  1.039270E-02  1.039244E-02  1.039226E-02  1.039213E-02  1.039202E-02  1.039194E-02
 1.039640E-02  1.039451E-02  1.039361E-02  1.039306E-02  1.039270E-02  1.039244E-02  1.039226E-02  1.039213E-02  1.039202E-02  1.039194E-02
 1.039640E-02  1.039451E-02  1.039361E-02  1.039306E-02  1.039270E-02  1.039244E-02  1.039226E-02  1.039213E-02  1.039202E-02  1.039194E-02
 1.039661E-02  1.039451E-02  1.039361E-02  1.039306E-02  1.039270E-02  1.039244E-02  1.039226E-02  1.039213E-02  1.039202E-02  1.039194E-02
 1.039661E-02  1.039451E-02  1.039361E-02  1.039306E-02  1.039270E-02  1.039244E-02  1.039226E-02  1.039213E-02  1.039202E-02  1.039194E-02
 1.039661E-02  1.039451E-02  1.039361E-02  1.039306E-02  1.039270E-02  1.039244E-02  1.039226E-02  1.039213E-02  1.039202E-02  1.039194E-02
 1.039661E-02  1.039451E-02  1.039361E-02  1.039306E-02  1.039270E-02  1.039244E-02  1.039226E-02  1.039213E-02  1.039202E-02  1.039194E-02
 1.039661E-02  1.039451E-02  1.039361E-02  1.039306E-02  1.039270E-02  1.039244E-02  1.039226E-02  1.039213E-02  1.039202E-02  1.039194E-02
 1.039662E-02  1.039451E-02  1.039361E-02  1.039306E-02  1.039270E-02  1.039244E-02  1.039226E-02  1.039213E-02  1.039202E-02  1.039194E-02
 1.039662E-02  1.039451E-02  1.039361E-02  1.039306E-02  1.039270E-02  1.039244E-02  1.039226E-02  1.039213E-02  1.039202E-02  1.039194E-02
 1.039662E-02  1.039451E-02  1.039361E-02  1.039306E-02  1.039270E-02  1.039244E-02  1.039226E-02  1.039213E-02  1.039202E-02  1.039194E-02
 1.039642E-02  1.039451E-02  1.039361E-02  1.039306E-02  1.039270E-02  1.039244E-02  1.039226E-02  1.039213E-02  1.039202E-02  1.039194E-02
 1.039642E-02  1.039451E-02  1.039361E-02  1.039306E-02  1.039270E-02  1.039244E-02  1.039226E-02  1.039213E-02  1.039202E-02  1.039194E-02
 1.039642E-02  1.039451E-02  1.039361E-02  1.039306E-02  1.039270E-02  1.039244E-02  1.039226E-02  1.039213E-02  1.039202E-02  1.039194E-02
 1.039642E-02  1.039451E-02  1.039361E-02  1.039306E-02  1.039270E-02  1.039244E-02  1.039226E-02  1.039213E-02  1.039202E-02  1.039194E-02
 1.039642E-02  1.039451E-02  1.039361E-02  1.039306E-02  1.039270E-02  1.039244E-02  1.039226E-02  1.039213E-02  1.039202E-02  1.039194E-02