# vtk DataFile Version 2.0
PFLOTRAN output
ASCII
DATASET UNSTRUCTURED_GRID
POINTS         4242 float
 0.000000E+00  0.000000E+00  0.000000E+00
 2.000000E+02  0.000000E+00  0.000000E+00
 4.000000E+02  0.000000E+00  0.000000E+00
 6.000000E+02  0.000000E+00  0.000000E+00
 8.000000E+02  0.000000E+00  0.000000E+00
 1.000000E+03  0.000000E+00  0.000000E+00
 1.200000E+03  0.000000E+00  0.000000E+00
 1.400000E+03  0.000000E+00  0.000000E+00
 1.600000E+03  0.000000E+00  0.000000E+00
 1.800000E+03  0.000000E+00  0.000000E+00
 2.000000E+03  0.000000E+00  0.000000E+00
 2.200000E+03  0.000000E+00  0.000000E+00
 2.400000E+03  0.000000E+00  0.000000E+00
 2.600000E+03  0.000000E+00  0.000000E+00
 2.800000E+03  0.000000E+00  0.000000E+00
 3.000000E+03  0.000000E+00  0.000000E+00
 3.200000E+03  0.000000E+00  0.000000E+00
 3.400000E+03  0.000000E+00  0.000000E+00
 3.600000E+03  0.000000E+00  0.000000E+00
 3.800000E+03  0.000000E+00  0.000000E+00
 4.000000E+03  0.000000E+00  0.000000E+00
 4.200000E+03  0.000000E+00  0.000000E+00
 4.400000E+03  0.000000E+00  0.000000E+00
 4.600000E+03  0.000000E+00  0.000000E+00
 4.800000E+03  0.000000E+00  0.000000E+00
 5.000000E+03  0.000000E+00  0.000000E+00
 5.200000E+03  0.000000E+00  0.000000E+00
 5.400000E+03  0.000000E+00  0.000000E+00
 5.600000E+03  0.000000E+00  0.000000E+00
 5.800000E+03  0.000000E+00  0.000000E+00
 6.000000E+03  0.000000E+00  0.000000E+00
 6.200000E+03  0.000000E+00  0.000000E+00
 6.400000E+03  0.000000E+00  0.000000E+00
 6.600000E+03  0.000000E+00  0.000000E+00
 6.800000E+03  0.000000E+00  0.000000E+00
 7.000000E+03  0.000000E+00  0.000000E+00
 7.200000E+03  0.000000E+00  0.000000E+00
 7.400000E+03  0.000000E+00  0.000000E+00
 7.600000E+03  0.000000E+00  0.000000E+00
 7.800000E+03  0.000000E+00  0.000000E+00
 8.000000E+03  0.000000E+00  0.000000E+00
 8.200000E+03  0.000000E+00  0.000000E+00
 8.400000E+03  0.000000E+00  0.000000E+00
 8.600000E+03  0.000000E+00  0.000000E+00
 8.800000E+03  0.000000E+00  0.000000E+00
 9.000000E+03  0.000000E+00  0.000000E+00
 9.200000E+03  0.000000E+00  0.000000E+00
 9.400000E+03  0.000000E+00  0.000000E+00
 9.600000E+03  0.000000E+00  0.000000E+00
 9.800000E+03  0.000000E+00  0.000000E+00
 1.000000E+04  0.000000E+00  0.000000E+00
 1.020000E+04  0.000000E+00  0.000000E+00
 1.040000E+04  0.000000E+00  0.000000E+00
 1.060000E+04  0.000000E+00  0.000000E+00
 1.080000E+04  0.000000E+00  0.000000E+00
 1.100000E+04  0.000000E+00  0.000000E+00
 1.120000E+04  0.000000E+00  0.000000E+00
 1.140000E+04  0.000000E+00  0.000000E+00
 1.160000E+04  0.000000E+00  0.000000E+00
 1.180000E+04  0.000000E+00  0.000000E+00
 1.200000E+04  0.000000E+00  0.000000E+00
 1.220000E+04  0.000000E+00  0.000000E+00
 1.240000E+04  0.000000E+00  0.000000E+00
 1.260000E+04  0.000000E+00  0.000000E+00
 1.280000E+04  0.000000E+00  0.000000E+00
 1.300000E+04  0.000000E+00  0.000000E+00
 1.320000E+04  0.000000E+00  0.000000E+00
 1.340000E+04  0.000000E+00  0.000000E+00
 1.360000E+04  0.000000E+00  0.000000E+00
 1.380000E+04  0.000000E+00  0.000000E+00
 1.400000E+04  0.000000E+00  0.000000E+00
 1.420000E+04  0.000000E+00  0.000000E+00
 1.440000E+04  0.000000E+00  0.000000E+00
 1.460000E+04  0.000000E+00  0.000000E+00
 1.480000E+04  0.000000E+00  0.000000E+00
 1.500000E+04  0.000000E+00  0.000000E+00
 1.520000E+04  0.000000E+00  0.000000E+00
 1.540000E+04  0.000000E+00  0.000000E+00
 1.560000E+04  0.000000E+00  0.000000E+00
 1.580000E+04  0.000000E+00  0.000000E+00
 1.600000E+04  0.000000E+00  0.000000E+00
 1.620000E+04  0.000000E+00  0.000000E+00
 1.640000E+04  0.000000E+00  0.000000E+00
 1.660000E+04  0.000000E+00  0.000000E+00
 1.680000E+04  0.000000E+00  0.000000E+00
 1.700000E+04  0.000000E+00  0.000000E+00
 1.720000E+04  0.000000E+00  0.000000E+00
 1.740000E+04  0.000000E+00  0.000000E+00
 1.760000E+04  0.000000E+00  0.000000E+00
 1.780000E+04  0.000000E+00  0.000000E+00
 1.800000E+04  0.000000E+00  0.000000E+00
 1.820000E+04  0.000000E+00  0.000000E+00
 1.840000E+04  0.000000E+00  0.000000E+00
 1.860000E+04  0.000000E+00  0.000000E+00
 1.880000E+04  0.000000E+00  0.000000E+00
 1.900000E+04  0.000000E+00  0.000000E+00
 1.920000E+04  0.000000E+00  0.000000E+00
 1.940000E+04  0.000000E+00  0.000000E+00
 1.960000E+04  0.000000E+00  0.000000E+00
 1.980000E+04  0.000000E+00  0.000000E+00
 2.000000E+04  0.000000E+00  0.000000E+00
 0.000000E+00  1.000000E+00  0.000000E+00
 2.000000E+02  1.000000E+00  0.000000E+00
 4.000000E+02  1.000000E+00  0.000000E+00
 6.000000E+02  1.000000E+00  0.000000E+00
 8.000000E+02  1.000000E+00  0.000000E+00
 1.000000E+03  1.000000E+00  0.000000E+00
 1.200000E+03  1.000000E+00  0.000000E+00
 1.400000E+03  1.000000E+00  0.000000E+00
 1.600000E+03  1.000000E+00  0.000000E+00
 1.800000E+03  1.000000E+00  0.000000E+00
 2.000000E+03  1.000000E+00  0.000000E+00
 2.200000E+03  1.000000E+00  0.000000E+00
 2.400000E+03  1.000000E+00  0.000000E+00
 2.600000E+03  1.000000E+00  0.000000E+00
 2.800000E+03  1.000000E+00  0.000000E+00
 3.000000E+03  1.000000E+00  0.000000E+00
 3.200000E+03  1.000000E+00  0.000000E+00
 3.400000E+03  1.000000E+00  0.000000E+00
 3.600000E+03  1.000000E+00  0.000000E+00
 3.800000E+03  1.000000E+00  0.000000E+00
 4.000000E+03  1.000000E+00  0.000000E+00
 4.200000E+03  1.000000E+00  0.000000E+00
 4.400000E+03  1.000000E+00  0.000000E+00
 4.600000E+03  1.000000E+00  0.000000E+00
 4.800000E+03  1.000000E+00  0.000000E+00
 5.000000E+03  1.000000E+00  0.000000E+00
 5.200000E+03  1.000000E+00  0.000000E+00
 5.400000E+03  1.000000E+00  0.000000E+00
 5.600000E+03  1.000000E+00  0.000000E+00
 5.800000E+03  1.000000E+00  0.000000E+00
 6.000000E+03  1.000000E+00  0.000000E+00
 6.200000E+03  1.000000E+00  0.000000E+00
 6.400000E+03  1.000000E+00  0.000000E+00
 6.600000E+03  1.000000E+00  0.000000E+00
 6.800000E+03  1.000000E+00  0.000000E+00
 7.000000E+03  1.000000E+00  0.000000E+00
 7.200000E+03  1.000000E+00  0.000000E+00
 7.400000E+03  1.000000E+00  0.000000E+00
 7.600000E+03  1.000000E+00  0.000000E+00
 7.800000E+03  1.000000E+00  0.000000E+00
 8.000000E+03  1.000000E+00  0.000000E+00
 8.200000E+03  1.000000E+00  0.000000E+00
 8.400000E+03  1.000000E+00  0.000000E+00
 8.600000E+03  1.000000E+00  0.000000E+00
 8.800000E+03  1.000000E+00  0.000000E+00
 9.000000E+03  1.000000E+00  0.000000E+00
 9.200000E+03  1.000000E+00  0.000000E+00
 9.400000E+03  1.000000E+00  0.000000E+00
 9.600000E+03  1.000000E+00  0.000000E+00
 9.800000E+03  1.000000E+00  0.000000E+00
 1.000000E+04  1.000000E+00  0.000000E+00
 1.020000E+04  1.000000E+00  0.000000E+00
 1.040000E+04  1.000000E+00  0.000000E+00
 1.060000E+04  1.000000E+00  0.000000E+00
 1.080000E+04  1.000000E+00  0.000000E+00
 1.100000E+04  1.000000E+00  0.000000E+00
 1.120000E+04  1.000000E+00  0.000000E+00
 1.140000E+04  1.000000E+00  0.000000E+00
 1.160000E+04  1.000000E+00  0.000000E+00
 1.180000E+04  1.000000E+00  0.000000E+00
 1.200000E+04  1.000000E+00  0.000000E+00
 1.220000E+04  1.000000E+00  0.000000E+00
 1.240000E+04  1.000000E+00  0.000000E+00
 1.260000E+04  1.000000E+00  0.000000E+00
 1.280000E+04  1.000000E+00  0.000000E+00
 1.300000E+04  1.000000E+00  0.000000E+00
 1.320000E+04  1.000000E+00  0.000000E+00
 1.340000E+04  1.000000E+00  0.000000E+00
 1.360000E+04  1.000000E+00  0.000000E+00
 1.380000E+04  1.000000E+00  0.000000E+00
 1.400000E+04  1.000000E+00  0.000000E+00
 1.420000E+04  1.000000E+00  0.000000E+00
 1.440000E+04  1.000000E+00  0.000000E+00
 1.460000E+04  1.000000E+00  0.000000E+00
 1.480000E+04  1.000000E+00  0.000000E+00
 1.500000E+04  1.000000E+00  0.000000E+00
 1.520000E+04  1.000000E+00  0.000000E+00
 1.540000E+04  1.000000E+00  0.000000E+00
 1.560000E+04  1.000000E+00  0.000000E+00
 1.580000E+04  1.000000E+00  0.000000E+00
 1.600000E+04  1.000000E+00  0.000000E+00
 1.620000E+04  1.000000E+00  0.000000E+00
 1.640000E+04  1.000000E+00  0.000000E+00
 1.660000E+04  1.000000E+00  0.000000E+00
 1.680000E+04  1.000000E+00  0.000000E+00
 1.700000E+04  1.000000E+00  0.000000E+00
 1.720000E+04  1.000000E+00  0.000000E+00
 1.740000E+04  1.000000E+00  0.000000E+00
 1.760000E+04  1.000000E+00  0.000000E+00
 1.780000E+04  1.000000E+00  0.000000E+00
 1.800000E+04  1.000000E+00  0.000000E+00
 1.820000E+04  1.000000E+00  0.000000E+00
 1.840000E+04  1.000000E+00  0.000000E+00
 1.860000E+04  1.000000E+00  0.000000E+00
 1.880000E+04  1.000000E+00  0.000000E+00
 1.900000E+04  1.000000E+00  0.000000E+00
 1.920000E+04  1.000000E+00  0.000000E+00
 1.940000E+04  1.000000E+00  0.000000E+00
 1.960000E+04  1.000000E+00  0.000000E+00
 1.980000E+04  1.000000E+00  0.000000E+00
 2.000000E+04  1.000000E+00  0.000000E+00
 0.000000E+00  0.000000E+00  1.500000E+01
 2.000000E+02  0.000000E+00  1.500000E+01
 4.000000E+02  0.000000E+00  1.500000E+01
 6.000000E+02  0.000000E+00  1.500000E+01
 8.000000E+02  0.000000E+00  1.500000E+01
 1.000000E+03  0.000000E+00  1.500000E+01
 1.200000E+03  0.000000E+00  1.500000E+01
 1.400000E+03  0.000000E+00  1.500000E+01
 1.600000E+03  0.000000E+00  1.500000E+01
 1.800000E+03  0.000000E+00  1.500000E+01
 2.000000E+03  0.000000E+00  1.500000E+01
 2.200000E+03  0.000000E+00  1.500000E+01
 2.400000E+03  0.000000E+00  1.500000E+01
 2.600000E+03  0.000000E+00  1.500000E+01
 2.800000E+03  0.000000E+00  1.500000E+01
 3.000000E+03  0.000000E+00  1.500000E+01
 3.200000E+03  0.000000E+00  1.500000E+01
 3.400000E+03  0.000000E+00  1.500000E+01
 3.600000E+03  0.000000E+00  1.500000E+01
 3.800000E+03  0.000000E+00  1.500000E+01
 4.000000E+03  0.000000E+00  1.500000E+01
 4.200000E+03  0.000000E+00  1.500000E+01
 4.400000E+03  0.000000E+00  1.500000E+01
 4.600000E+03  0.000000E+00  1.500000E+01
 4.800000E+03  0.000000E+00  1.500000E+01
 5.000000E+03  0.000000E+00  1.500000E+01
 5.200000E+03  0.000000E+00  1.500000E+01
 5.400000E+03  0.000000E+00  1.500000E+01
 5.600000E+03  0.000000E+00  1.500000E+01
 5.800000E+03  0.000000E+00  1.500000E+01
 6.000000E+03  0.000000E+00  1.500000E+01
 6.200000E+03  0.000000E+00  1.500000E+01
 6.400000E+03  0.000000E+00  1.500000E+01
[...]
CELL_DATA     2000
SCALARS Vlx                  float 1
LOOKUP_TABLE default
 3.761215E+01  3.670107E+01  3.212878E+01  2.600727E+01  2.108202E+01  1.748284E+01  1.485717E+01  1.289383E+01  1.138181E+01  1.018513E+01
 9.215544E+00  8.414341E+00  7.741260E+00  7.167872E+00  6.673565E+00  6.243036E+00  5.864691E+00  5.529584E+00  5.230704E+00  4.962477E+00
 4.720418E+00  4.500876E+00  4.300848E+00  4.117843E+00  3.949777E+00  3.794893E+00  3.651698E+00  3.518916E+00  3.395453E+00  3.280360E+00
 3.172813E+00  3.072095E+00  2.977575E+00  2.888698E+00  2.804973E+00  2.725964E+00  2.651285E+00  2.580589E+00  2.513565E+00  2.449935E+00
 2.389447E+00  2.331874E+00  2.277010E+00  2.224669E+00  2.174680E+00  2.126888E+00  2.081152E+00  2.037342E+00  1.995338E+00  1.955031E+00
 1.916321E+00  1.879114E+00  1.843324E+00  1.808872E+00  1.775685E+00  1.743693E+00  1.712834E+00  1.683048E+00  1.654281E+00  1.626480E+00
 1.599599E+00  1.573592E+00  1.548417E+00  1.524034E+00  1.500408E+00  1.477504E+00  1.455288E+00  1.433730E+00  1.412802E+00  1.392476E+00
 1.372727E+00  1.353530E+00  1.334863E+00  1.316704E+00  1.299032E+00  1.281828E+00  1.265074E+00  1.248753E+00  1.232847E+00  1.217341E+00
 1.202221E+00  1.187472E+00  1.173080E+00  1.159033E+00  1.145319E+00  1.131925E+00  1.118841E+00  1.106056E+00  1.093560E+00  1.081343E+00
 1.069397E+00  1.057712E+00  1.046279E+00  1.035092E+00  1.024143E+00  1.013426E+00  1.002935E+00  9.926683E-01  9.826301E-01  9.728573E-01
 4.053187E+01  3.831200E+01  3.266863E+01  2.615955E+01  2.112390E+01  1.749498E+01  1.486128E+01  1.289568E+01  1.138298E+01  1.018604E+01
 9.216334E+00  8.415051E+00  7.741910E+00  7.168474E+00  6.674125E+00  6.243560E+00  5.865183E+00  5.530047E+00  5.231142E+00  4.962893E+00
 4.720813E+00  4.501253E+00  4.301208E+00  4.118188E+00  3.950108E+00  3.795211E+00  3.652003E+00  3.519211E+00  3.395737E+00  3.280634E+00
 3.173079E+00  3.072352E+00  2.977824E+00  2.888939E+00  2.805207E+00  2.726192E+00  2.651507E+00  2.580805E+00  2.513775E+00  2.450140E+00
 2.389647E+00  2.332069E+00  2.277201E+00  2.224855E+00  2.174862E+00  2.127066E+00  2.081326E+00  2.037512E+00  1.995505E+00  1.955195E+00
 1.916481E+00  1.879271E+00  1.843478E+00  1.809024E+00  1.775833E+00  1.743839E+00  1.712977E+00  1.683189E+00  1.654419E+00  1.626616E+00
 1.599733E+00  1.573723E+00  1.548546E+00  1.524162E+00  1.500534E+00  1.477627E+00  1.455410E+00  1.433850E+00  1.412920E+00  1.392593E+00
 1.372842E+00  1.353643E+00  1.334975E+00  1.316814E+00  1.299140E+00  1.281935E+00  1.265180E+00  1.248857E+00  1.232950E+00  1.217443E+00
 1.202322E+00  1.187571E+00  1.173178E+00  1.159130E+00  1.145414E+00  1.132020E+00  1.118935E+00  1.106149E+00  1.093652E+00  1.081434E+00
 1.069486E+00  1.057800E+00  1.046367E+00  1.035179E+00  1.024229E+00  1.013510E+00  1.003018E+00  9.927502E-01  9.827087E-01  9.729098E-01
 4.674021E+01  4.164762E+01  3.373122E+01  2.645141E+01  2.120239E+01  1.751679E+01  1.486796E+01  1.289824E+01  1.138434E+01  1.018701E+01
 9.217138E+00  8.415766E+00  7.742562E+00  7.169076E+00  6.674684E+00  6.244083E+00  5.865674E+00  5.530510E+00  5.231580E+00  4.963308E+00
 4.721209E+00  4.501629E+00  4.301568E+00  4.118533E+00  3.950439E+00  3.795528E+00  3.652309E+00  3.519505E+00  3.396021E+00  3.280909E+00
 3.173344E+00  3.072609E+00  2.978073E+00  2.889181E+00  2.805442E+00  2.726420E+00  2.651729E+00  2.581021E+00  2.513986E+00  2.450345E+00
 2.389847E+00  2.332264E+00  2.277391E+00  2.225041E+00  2.175044E+00  2.127244E+00  2.081500E+00  2.037683E+00  1.995672E+00  1.955358E+00
 1.916641E+00  1.879428E+00  1.843632E+00  1.809175E+00  1.775982E+00  1.743985E+00  1.713121E+00  1.683330E+00  1.654558E+00  1.626752E+00
 1.599866E+00  1.573855E+00  1.548676E+00  1.524289E+00  1.500659E+00  1.477751E+00  1.455531E+00  1.433970E+00  1.413039E+00  1.392709E+00
 1.372957E+00  1.353757E+00  1.335086E+00  1.316924E+00  1.299249E+00  1.282043E+00  1.265286E+00  1.248962E+00  1.233053E+00  1.217545E+00
 1.202422E+00  1.187670E+00  1.173276E+00  1.159227E+00  1.145510E+00  1.132114E+00  1.119028E+00  1.106241E+00  1.093743E+00  1.081524E+00
 1.069576E+00  1.057888E+00  1.046454E+00  1.035265E+00  1.024314E+00  1.013594E+00  1.003101E+00  9.928310E-01  9.827850E-01  9.729666E-01
 5.702877E+01  4.694607E+01  3.527984E+01  2.686109E+01  2.131063E+01  1.754634E+01  1.487671E+01  1.290134E+01  1.138584E+01  1.018802E+01
 9.217954E+00  8.416484E+00  7.743215E+00  7.169677E+00  6.675244E+00  6.244606E+00  5.866165E+00  5.530973E+00  5.232018E+00  4.963723E+00
 4.721604E+00  4.502006E+00  4.301928E+00  4.118877E+00  3.950769E+00  3.795846E+00  3.652614E+00  3.519800E+00  3.396305E+00  3.281183E+00
 3.173610E+00  3.072866E+00  2.978322E+00  2.889423E+00  2.805677E+00  2.726648E+00  2.651951E+00  2.581237E+00  2.514196E+00  2.450550E+00
 2.390046E+00  2.332459E+00  2.277581E+00  2.225227E+00  2.175225E+00  2.127422E+00  2.081674E+00  2.037853E+00  1.995839E+00  1.955522E+00
 1.916802E+00  1.879585E+00  1.843786E+00  1.809326E+00  1.776130E+00  1.744131E+00  1.713264E+00  1.683471E+00  1.654696E+00  1.626888E+00
 1.600000E+00  1.573986E+00  1.548805E+00  1.524417E+00  1.500785E+00  1.477874E+00  1.455653E+00  1.434090E+00  1.413157E+00  1.392826E+00
 1.373071E+00  1.353870E+00  1.335198E+00  1.317034E+00  1.299358E+00  1.282150E+00  1.265392E+00  1.249066E+00  1.233156E+00  1.217647E+00
 1.202523E+00  1.187770E+00  1.173374E+00  1.159324E+00  1.145606E+00  1.132209E+00  1.119122E+00  1.106333E+00  1.093834E+00  1.081615E+00
 1.069665E+00  1.057977E+00  1.046542E+00  1.035351E+00  1.024399E+00  1.013678E+00  1.003184E+00  9.929110E-01  9.828598E-01  9.730266E-01
 7.273403E+01  5.458839E+01  3.724259E+01  2.735548E+01  2.143883E+01  1.758095E+01  1.488678E+01  1.290480E+01  1.138745E+01  1.018905E+01
 9.218776E+00  8.417203E+00  7.743867E+00  7.170279E+00  6.675803E+00  6.245129E+00  5.866656E+00  5.531436E+00  5.232455E+00  4.964139E+00
 4.721999E+00  4.502383E+00  4.302288E+00  4.119222E+00  3.951099E+00  3.796163E+00  3.652920E+00  3.520094E+00  3.396589E+00  3.281457E+00
 3.173875E+00  3.073123E+00  2.978571E+00  2.889664E+00  2.805911E+00  2.726876E+00  2.652172E+00  2.581452E+00  2.514406E+00  2.450754E+00
 2.390246E+00  2.332654E+00  2.277772E+00  2.225413E+00  2.175407E+00  2.127600E+00  2.081848E+00  2.038023E+00  1.996005E+00  1.955685E+00
 1.916962E+00  1.879742E+00  1.843941E+00  1.809477E+00  1.776279E+00  1.744276E+00  1.713407E+00  1.683611E+00  1.654834E+00  1.627024E+00
 1.600134E+00  1.574118E+00  1.548934E+00  1.524544E+00  1.500910E+00  1.477998E+00  1.455775E+00  1.434210E+00  1.413275E+00  1.392942E+00
 1.373186E+00  1.353983E+00  1.335309E+00  1.317144E+00  1.299466E+00  1.282257E+00  1.265497E+00  1.249170E+00  1.233259E+00  1.217748E+00
 1.202623E+00  1.187869E+00  1.173472E+00  1.159421E+00  1.145702E+00  1.132303E+00  1.119215E+00  1.106426E+00  1.093926E+00  1.081705E+00
 1.069754E+00  1.058065E+00  1.046629E+00  1.035438E+00  1.024484E+00  1.013762E+00  1.003265E+00  9.929902E-01  9.829338E-01  9.730890E-01
 9.594174E+01  6.512790E+01  3.948852E+01  2.789023E+01  2.157497E+01  1.761741E+01  1.489732E+01  1.290839E+01  1.138909E+01  1.019009E+01
 9.219601E+00  8.417923E+00  7.744520E+00  7.170881E+00  6.676362E+00  6.245652E+00  5.867147E+00  5.531899E+00  5.232893E+00  4.964554E+00
 4.722393E+00  4.502759E+00  4.302647E+00  4.119566E+00  3.951430E+00  3.796480E+00  3.653225E+00  3.520388E+00  3.396873E+00  3.281731E+00
 3.174140E+00  3.073380E+00  2.978820E+00  2.889906E+00  2.806145E+00  2.727104E+00  2.652394E+00  2.581668E+00  2.514616E+00  2.450959E+00
 2.390446E+00  2.332849E+00  2.277962E+00  2.225599E+00  2.175589E+00  2.127777E+00  2.082022E+00  2.038193E+00  1.996172E+00  1.955848E+00
 1.917122E+00  1.879899E+00  1.844095E+00  1.809628E+00  1.776427E+00  1.744422E+00  1.713550E+00  1.683752E+00  1.654972E+00  1.627160E+00
 1.600268E+00  1.574249E+00  1.549064E+00  1.524671E+00  1.501036E+00  1.478121E+00  1.455896E+00  1.434330E+00  1.413393E+00  1.393058E+00
 1.373301E+00  1.354096E+00  1.335421E+00  1.317254E+00  1.299575E+00  1.282364E+00  1.265603E+00  1.249275E+00  1.233362E+00  1.217850E+00
 1.202724E+00  1.187968E+00  1.173570E+00  1.159518E+00  1.145797E+00  1.132398E+00  1.119309E+00  1.106518E+00  1.094017E+00  1.081795E+00
 1.069844E+00  1.058153E+00  1.046716E+00  1.035524E+00  1.024569E+00  1.013846E+00  1.003347E+00  9.930689E-01  9.830071E-01  9.731533E-01
 1.295996E+02  7.926153E+01  4.178914E+01  2.841161E+01  2.170581E+01  1.765231E+01  1.490743E+01  1.291186E+01  1.139069E+01  1.019113E+01
 9.220424E+00  8.418643E+00  7.745173E+00  7.171482E+00  6.676921E+00  6.246174E+00  5.867638E+00  5.532361E+00  5.233330E+00  4.964969E+00
 4.722788E+00  4.503135E+00  4.303007E+00  4.119910E+00  3.951760E+00  3.796797E+00  3.653530E+00  3.520682E+00  3.397157E+00  3.282006E+00
 3.174405E+00  3.073636E+00  2.979069E+00  2.890147E+00  2.806380E+00  2.727332E+00  2.652615E+00  2.581883E+00  2.514826E+00  2.451164E+00
 2.390645E+00  2.333043E+00  2.278152E+00  2.225785E+00  2.175771E+00  2.127955E+00  2.082196E+00  2.038364E+00  1.996339E+00  1.956012E+00
 1.917282E+00  1.880056E+00  1.844248E+00  1.809779E+00  1.776575E+00  1.744568E+00  1.713693E+00  1.683892E+00  1.655110E+00  1.627296E+00
 1.600401E+00  1.574381E+00  1.549193E+00  1.524799E+00  1.501161E+00  1.478245E+00  1.456018E+00  1.434449E+00  1.413511E+00  1.393175E+00
 1.373415E+00  1.354209E+00  1.335532E+00  1.317364E+00  1.299683E+00  1.282471E+00  1.265709E+00  1.249379E+00  1.233465E+00  1.217952E+00
 1.202824E+00  1.188067E+00  1.173668E+00  1.159614E+00  1.145893E+00  1.132493E+00  1.119402E+00  1.106611E+00  1.094108E+00  1.081886E+00
 1.069933E+00  1.058242E+00  1.046803E+00  1.035610E+00  1.024654E+00  1.013929E+00  1.003428E+00  9.931470E-01  9.830802E-01  9.732188E-01
 1.517060E+02  8.912147E+01  4.376132E+01  2.886192E+01  2.181823E+01  1.768232E+01  1.491623E+01  1.291497E+01  1.139220E+01  1.019213E+01
 9.221239E+00  8.419360E+00  7.745824E+00  7.172083E+00  6.677480E+00  6.246696E+00  5.868128E+00  5.532824E+00  5.233768E+00  4.965383E+00
 4.723182E+00  4.503511E+00  4.303366E+00  4.120254E+00  3.952090E+00  3.797114E+00  3.653835E+00  3.520976E+00  3.397440E+00  3.282279E+00
 3.174670E+00  3.073893E+00  2.979317E+00  2.890388E+00  2.806614E+00  2.727559E+00  2.652837E+00  2.582099E+00  2.515036E+00  2.451368E+00
 2.390845E+00  2.333238E+00  2.278342E+00  2.225970E+00  2.175952E+00  2.128133E+00  2.082370E+00  2.038534E+00  1.996505E+00  1.956175E+00
 1.917442E+00  1.880213E+00  1.844402E+00  1.809930E+00  1.776724E+00  1.744713E+00  1.713836E+00  1.684033E+00  1.655249E+00  1.627432E+00
 1.600535E+00  1.574512E+00  1.549322E+00  1.524926E+00  1.501286E+00  1.478368E+00  1.456139E+00  1.434569E+00  1.413629E+00  1.393291E+00
 1.373530E+00  1.354322E+00  1.335644E+00  1.317474E+00  1.299792E+00  1.282578E+00  1.265814E+00  1.249483E+00  1.233568E+00  1.218053E+00
 1.202924E+00  1.188166E+00  1.173766E+00  1.159711E+00  1.145989E+00  1.132587E+00  1.119495E+00  1.106703E+00  1.094200E+00  1.081976E+00
 1.070022E+00  1.058330E+00  1.046890E+00  1.035696E+00  1.024739E+00  1.014012E+00  1.003509E+00  9.932248E-01  9.831530E-01  9.732853E-01
 1.649752E+02  9.532289E+01  4.517828E+01  2.919207E+01  2.190087E+01  1.770460E+01  1.492298E+01  1.291753E+01  1.139356E+01  1.019310E+01
 9.222043E+00  8.420073E+00  7.746475E+00  7.172684E+00  6.678039E+00  6.247219E+00  5.868618E+00  5.533286E+00  5.234205E+00  4.965798E+00
 4.723577E+00  4.503887E+00  4.303725E+00  4.120598E+00  3.952420E+00  3.797431E+00  3.654140E+00  3.521270E+00  3.397724E+00  3.282553E+00
 3.174935E+00  3.074149E+00  2.979566E+00  2.890629E+00  2.806848E+00  2.727787E+00  2.653058E+00  2.582314E+00  2.515246E+00  2.451573E+00
 2.391044E+00  2.333433E+00  2.278532E+00  2.226156E+00  2.176134E+00  2.128310E+00  2.082543E+00  2.038704E+00  1.996672E+00  1.956338E+00
 1.917602E+00  1.880370E+00  1.844556E+00  1.810081E+00  1.776872E+00  1.744859E+00  1.713979E+00  1.684173E+00  1.655387E+00  1.627568E+00
 1.600668E+00  1.574643E+00  1.549452E+00  1.525053E+00  1.501411E+00  1.478491E+00  1.456261E+00  1.434689E+00  1.413746E+00  1.393407E+00
 1.373644E+00  1.354435E+00  1.335755E+00  1.317584E+00  1.299900E+00  1.282685E+00  1.265920E+00  1.249587E+00  1.233671E+00  1.218155E+00
 1.203025E+00  1.188265E+00  1.173864E+00  1.159808E+00  1.146084E+00  1.132681E+00  1.119589E+00  1.106795E+00  1.094291E+00  1.082066E+00
 1.070111E+00  1.058418E+00  1.046977E+00  1.035782E+00  1.024824E+00  1.014095E+00  1.003590E+00  9.933024E-01  9.832257E-01  9.733525E-01
 1.711990E+02  9.831823E+01  4.591613E+01  2.936742E+01  2.194537E+01  1.771706E+01  1.492713E+01  1.291940E+01  1.139473E+01  1.019401E+01
 9.222832E+00  8.420783E+00  7.747125E+00  7.173284E+00  6.678597E+00  6.247741E+00  5.869109E+00  5.533748E+00  5.234642E+00  4.966213E+00
 4.723971E+00  4.504263E+00  4.304084E+00  4.120942E+00  3.952749E+00  3.797748E+00  3.654445E+00  3.521564E+00  3.398007E+00  3.282827E+00
 3.175200E+00  3.074406E+00  2.979814E+00  2.890870E+00  2.807082E+00  2.728014E+00  2.653279E+00  2.582530E+00  2.515455E+00  2.451777E+00
 2.391244E+00  2.333627E+00  2.278722E+00  2.226342E+00  2.176315E+00  2.128487E+00  2.082717E+00  2.038874E+00  1.996838E+00  1.956501E+00
 1.917762E+00  1.880527E+00  1.844710E+00  1.810232E+00  1.777020E+00  1.745004E+00  1.714122E+00  1.684314E+00  1.655525E+00  1.627703E+00
 1.600802E+00  1.574775E+00  1.549581E+00  1.525180E+00  1.501536E+00  1.478614E+00  1.456382E+00  1.434808E+00  1.413864E+00  1.393523E+00
 1.373759E+00  1.354548E+00  1.335866E+00  1.317693E+00  1.300008E+00  1.282792E+00  1.266025E+00  1.249691E+00  1.233774E+00  1.218257E+00
 1.203125E+00  1.188364E+00  1.173962E+00  1.159904E+00  1.146180E+00  1.132776E+00  1.119682E+00  1.106887E+00  1.094382E+00  1.082156E+00
 1.070200E+00  1.058506E+00  1.047064E+00  1.035868E+00  1.024908E+00  1.014178E+00  1.003671E+00  9.933798E-01  9.832984E-01  9.734199E-01
 1.712027E+02  9.832189E+01  4.591939E+01  2.936996E+01  2.194729E+01  1.771859E+01  1.492841E+01  1.292049E+01  1.139569E+01  1.019487E+01
 9.223605E+00  8.421488E+00  7.747772E+00  7.173883E+00  6.679155E+00  6.248262E+00  5.869598E+00  5.534210E+00  5.235079E+00  4.966627E+00
 4.724365E+00  4.504639E+00  4.304443E+00  4.121285E+00  3.953079E+00  3.798065E+00  3.654750E+00  3.521857E+00  3.398290E+00  3.283101E+00
 3.175465E+00  3.074662E+00  2.980063E+00  2.891111E+00  2.807316E+00  2.728242E+00  2.653500E+00  2.582745E+00  2.515665E+00  2.451982E+00
 2.391443E+00  2.333822E+00  2.278912E+00  2.226527E+00  2.176496E+00  2.128665E+00  2.082890E+00  2.039043E+00  1.997005E+00  1.956664E+00
 1.917921E+00  1.880683E+00  1.844864E+00  1.810383E+00  1.777168E+00  1.745150E+00  1.714265E+00  1.684454E+00  1.655663E+00  1.627839E+00
 1.600935E+00  1.574906E+00  1.549710E+00  1.525307E+00  1.501661E+00  1.478738E+00  1.456503E+00  1.434928E+00  1.413982E+00  1.393639E+00
 1.373873E+00  1.354661E+00  1.335978E+00  1.317803E+00  1.300117E+00  1.282899E+00  1.266131E+00  1.249795E+00  1.233876E+00  1.218358E+00
 1.203225E+00  1.188463E+00  1.174060E+00  1.160001E+00  1.146275E+00  1.132870E+00  1.119775E+00  1.106980E+00  1.094473E+00  1.082246E+00
 1.070289E+00  1.058594E+00  1.047151E+00  1.035954E+00  1.024993E+00  1.014261E+00  1.003752E+00  9.934572E-01  9.833710E-01  9.734875E-01
 1.649942E+02  9.533877E+01  4.518978E+01  2.920003E+01  2.190668E+01  1.770919E+01  1.492680E+01  1.292081E+01  1.139644E+01  1.019567E+01
 9.224362E+00  8.422188E+00  7.748419E+00  7.174482E+00  6.679712E+00  6.248784E+00  5.870088E+00  5.534671E+00  5.235515E+00  4.967041E+00
 4.724759E+00  4.505014E+00  4.304802E+00  4.121629E+00  3.953408E+00  3.798381E+00  3.655054E+00  3.522151E+00  3.398574E+00  3.283374E+00
 3.175729E+00  3.074918E+00  2.980311E+00  2.891352E+00  2.807550E+00  2.728469E+00  2.653721E+00  2.582960E+00  2.515875E+00  2.452186E+00
 2.391642E+00  2.334016E+00  2.279102E+00  2.226713E+00  2.176678E+00  2.128842E+00  2.083064E+00  2.039213E+00  1.997171E+00  1.956827E+00
 1.918081E+00  1.880840E+00  1.845017E+00  1.810534E+00  1.777316E+00  1.745295E+00  1.714407E+00  1.684594E+00  1.655800E+00  1.627974E+00
 1.601068E+00  1.575037E+00  1.549839E+00  1.525434E+00  1.501787E+00  1.478861E+00  1.456625E+00  1.435047E+00  1.414100E+00  1.393755E+00
 1.373988E+00  1.354773E+00  1.336089E+00  1.317913E+00  1.300225E+00  1.283005E+00  1.266236E+00  1.249900E+00  1.233979E+00  1.218459E+00
 1.203325E+00  1.188562E+00  1.174157E+00  1.160098E+00  1.146371E+00  1.132965E+00  1.119868E+00  1.107072E+00  1.094564E+00  1.082336E+00
 1.070378E+00  1.058682E+00  1.047238E+00  1.036039E+00  1.025077E+00  1.014344E+00  1.003832E+00  9.935345E-01  9.834436E-01  9.735549E-01
 1.517378E+02  8.914817E+01  4.378057E+01  2.887512E+01  2.182788E+01  1.768995E+01  1.492259E+01  1.292044E+01  1.139700E+01  1.019641E+01
 9.225104E+00  8.422884E+00  7.749064E+00  7.175081E+00  6.680270E+00  6.249305E+00  5.870578E+00  5.535133E+00  5.235952E+00  4.967455E+00
 4.725153E+00  4.505390E+00  4.305161E+00  4.121972E+00  3.953738E+00  3.798698E+00  3.655359E+00  3.522444E+00  3.398857E+00  3.283648E+00
 3.175994E+00  3.075174E+00  2.980559E+00  2.891593E+00  2.807784E+00  2.728696E+00  2.653942E+00  2.583175E+00  2.516084E+00  2.452390E+00
 2.391841E+00  2.334210E+00  2.279292E+00  2.226898E+00  2.176859E+00  2.129019E+00  2.083237E+00  2.039383E+00  1.997337E+00  1.956990E+00
 1.918241E+00  1.880996E+00  1.845171E+00  1.810685E+00  1.777464E+00  1.745440E+00  1.714550E+00  1.684735E+00  1.655938E+00  1.628110E+00
 1.601201E+00  1.575168E+00  1.549968E+00  1.525561E+00  1.501912E+00  1.478984E+00  1.456746E+00  1.435167E+00  1.414218E+00  1.393871E+00
 1.374102E+00  1.354886E+00  1.336200E+00  1.318023E+00  1.300333E+00  1.283112E+00  1.266341E+00  1.250004E+00  1.234082E+00  1.218561E+00
 1.203425E+00  1.188661E+00  1.174255E+00  1.160194E+00  1.146466E+00  1.133059E+00  1.119962E+00  1.107164E+00  1.094655E+00  1.082426E+00
 1.070468E+00  1.058770E+00  1.047325E+00  1.036125E+00  1.025162E+00  1.014427E+00  1.003913E+00  9.936120E-01  9.835162E-01  9.736219E-01
 1.296398E+02  7.929677E+01  4.181536E+01  2.842977E+01  2.171921E+01  1.766296E+01  1.491632E+01  1.291950E+01  1.139741E+01  1.019712E+01
 9.225835E+00  8.423577E+00  7.749708E+00  7.175678E+00  6.680827E+00  6.249826E+00  5.871067E+00  5.535594E+00  5.236388E+00  4.967869E+00
 4.725546E+00  4.505765E+00  4.305519E+00  4.122316E+00  3.954067E+00  3.799014E+00  3.655663E+00  3.522737E+00  3.399140E+00  3.283921E+00
 3.176258E+00  3.075430E+00  2.980807E+00  2.891834E+00  2.808018E+00  2.728923E+00  2.654163E+00  2.583390E+00  2.516293E+00  2.452594E+00
 2.392040E+00  2.334405E+00  2.279481E+00  2.227083E+00  2.177040E+00  2.129197E+00  2.083411E+00  2.039553E+00  1.997503E+00  1.957153E+00
 1.918400E+00  1.881153E+00  1.845324E+00  1.810835E+00  1.777612E+00  1.745585E+00  1.714693E+00  1.684875E+00  1.656076E+00  1.628245E+00
 1.601335E+00  1.575299E+00  1.550097E+00  1.525688E+00  1.502037E+00  1.479107E+00  1.456867E+00  1.435286E+00  1.414335E+00  1.393987E+00
 1.374217E+00  1.354999E+00  1.336311E+00  1.318132E+00  1.300441E+00  1.283219E+00  1.266447E+00  1.250108E+00  1.234185E+00  1.218662E+00
 1.203526E+00  1.188760E+00  1.174353E+00  1.160291E+00  1.146561E+00  1.133153E+00  1.120055E+00  1.107256E+00  1.094746E+00  1.082516E+00
 1.070557E+00  1.058858E+00  1.047412E+00  1.036211E+00  1.025246E+00  1.014510E+00  1.003994E+00  9.936896E-01  9.835889E-01  9.736882E-01
 9.600089E+01  6.517532E+01  3.952149E+01  2.791303E+01  2.159203E+01  1.763106E+01  1.490874E+01  1.291822E+01  1.139772E+01  1.019780E+01
 9.226558E+00  8.424267E+00  7.750351E+00  7.176276E+00  6.681383E+00  6.250347E+00  5.871556E+00  5.536055E+00  5.236824E+00  4.968283E+00