# vtk DataFile Version 2.0
PFLOTRAN output
ASCII
DATASET UNSTRUCTURED_GRID
POINTS          462 float
 0.000000E+00  0.000000E+00  0.000000E+00
 2.000000E+03  0.000000E+00  0.000000E+00
 4.000000E+03  0.000000E+00  0.000000E+00
 6.000000E+03  0.000000E+00  0.000000E+00
 8.000000E+03  0.000000E+00  0.000000E+00
 1.000000E+04  0.000000E+00  0.000000E+00
 1.200000E+04  0.000000E+00  0.000000E+00
 1.400000E+04  0.000000E+00  0.000000E+00
 1.600000E+04  0.000000E+00  0.000000E+00
 1.800000E+04  0.000000E+00  0.000000E+00
 2.000000E+04  0.000000E+00  0.000000E+00
 0.000000E+00  1.000000E+00  0.000000E+00
 2.000000E+03  1.000000E+00  0.000000E+00
 4.000000E+03  1.000000E+00  0.000000E+00
 6.000000E+03  1.000000E+00  0.000000E+00
 8.000000E+03  1.000000E+00  0.000000E+00
 1.000000E+04  1.000000E+00  0.000000E+00
 1.200000E+04  1.000000E+00  0.000000E+00
 1.400000E+04  1.000000E+00  0.000000E+00
 1.600000E+04  1.000000E+00  0.000000E+00
 1.800000E+04  1.000000E+00  0.000000E+00
 2.000000E+04  1.000000E+00  0.000000E+00
 0.000000E+00  0.000000E+00  5.000000E+00
 2.000000E+03  0.000000E+00  5.000000E+00
 4.000000E+03  0.000000E+00  5.000000E+00
 6.000000E+03  0.000000E+00  5.000000E+00
 8.000000E+03  0.000000E+00  5.000000E+00
 1.000000E+04  0.000000E+00  5.000000E+00
 1.200000E+04  0.000000E+00  5.000000E+00
 1.400000E+04  0.000000E+00  5.000000E+00
 1.600000E+04  0.000000E+00  5.000000E+00
 1.800000E+04  0.000000E+00  5.000000E+00
 2.000000E+04  0.000000E+00  5.000000E+00
 0.000000E+00  1.000000E+00  5.000000E+00
 2.000000E+03  1.000000E+00  5.000000E+00
 4.000000E+03  1.000000E+00  5.000000E+00
 6.000000E+03  1.000000E+00  5.000000E+00
 8.000000E+03  1.000000E+00  5.000000E+00
 1.000000E+04  1.000000E+00  5.000000E+00
 1.200000E+04  1.000000E+00  5.000000E+00
 1.400000E+04  1.000000E+00  5.000000E+00
 1.600000E+04  1.000000E+00  5.000000E+00
 1.800000E+04  1.000000E+00  5.000000E+00
 2.000000E+04  1.000000E+00  5.000000E+00
 0.000000E+00  0.000000E+00  1.000000E+01
 2.000000E+03  0.000000E+00  1.000000E+01
 4.000000E+03  0.000000E+00  1.000000E+01
 6.000000E+03  0.000000E+00  1.000000E+01
 8.000000E+03  0.000000E+00  1.000000E+01
 1.000000E+04  0.000000E+00  1.000000E+01
 1.200000E+04  0.000000E+00  1.000000E+01
 1.400000E+04  0.000000E+00  1.000000E+01
 1.600000E+04  0.000000E+00  1.000000E+01
 1.800000E+04  0.000000E+00  1.000000E+01
 2.000000E+04  0.000000E+00  1.000000E+01
 0.000000E+00  1.000000E+00  1.000000E+01
 2.000000E+03  1.000000E+00  1.000000E+01
 4.000000E+03  1.000000E+00  1.000000E+01
 6.000000E+03  1.000000E+00  1.000000E+01
 8.000000E+03  1.000000E+00  1.000000E+01
 1.000000E+04  1.000000E+00  1.000000E+01
 1.200000E+04  1.000000E+00  1.000000E+01
 1.400000E+04  1.000000E+00  1.000000E+01
 1.600000E+04  1.000000E+00  1.000000E+01
 1.800000E+04  1.000000E+00  1.000000E+01
 2.000000E+04  1.000000E+00  1.000000E+01
 0.000000E+00  0.000000E+00  1.500000E+01
 2.000000E+03  0.000000E+00  1.500000E+01
 4.000000E+03  0.000000E+00  1.500000E+01
 6.000000E+03  0.000000E+00  1.500000E+01
 8.000000E+03  0.000000E+00  1.500000E+01
 1.000000E+04  0.000000E+00  1.500000E+01
 1.200000E+04  0.000000E+00  1.500000E+01
 1.400000E+04  0.000000E+00  1.500000E+01
 1.600000E+04  0.000000E+00  1.500000E+01
 1.800000E+04  0.000000E+00  1.500000E+01
 2.000000E+04  0.000000E+00  1.500000E+01
 0.000000E+00  1.000000E+00  1.500000E+01
 2.000000E+03  1.000000E+00  1.500000E+01
 4.000000E+03  1.000000E+00  1.500000E+01
 6.000000E+03  1.000000E+00  1.500000E+01
 8.000000E+03  1.000000E+00  1.500000E+01
 1.000000E+04  1.000000E+00  1.500000E+01
 1.200000E+04  1.000000E+00  1.500000E+01
 1.400000E+04  1.000000E+00  1.500000E+01
 1.600000E+04  1.000000E+00  1.500000E+01
 1.800000E+04  1.000000E+00  1.500000E+01
 2.000000E+04  1.000000E+00  1.500000E+01
 0.000000E+00  0.000000E+00  2.000000E+01
 2.000000E+03  0.000000E+00  2.000000E+01
 4.000000E+03  0.000000E+00  2.000000E+01
 6.000000E+03  0.000000E+00  2.000000E+01
 8.000000E+03  0.000000E+00  2.000000E+01
 1.000000E+04  0.000000E+00  2.000000E+01
 1.200000E+04  0.000000E+00  2.000000E+01
 1.400000E+04  0.000000E+00  2.000000E+01
 1.600000E+04  0.000000E+00  2.000000E+01
 1.800000E+04  0.000000E+00  2.000000E+01
 2.000000E+04  0.000000E+00  2.000000E+01
 0.000000E+00  1.000000E+00  2.000000E+01
 2.000000E+03  1.000000E+00  2.000000E+01
 4.000000E+03  1.000000E+00  2.000000E+01
 6.000000E+03  1.000000E+00  2.000000E+01
 8.000000E+03  1.000000E+00  2.000000E+01
 1.000000E+04  1.000000E+00  2.000000E+01
 1.200000E+04  1.000000E+00  2.000000E+01
 1.400000E+04  1.000000E+00  2.000000E+01
 1.600000E+04  1.000000E+00  2.000000E+01
 1.800000E+04  1.000000E+00  2.000000E+01
 2.000000E+04  1.000000E+00  2.000000E+01
 0.000000E+00  0.000000E+00  2.500000E+01
 2.000000E+03  0.000000E+00  2.500000E+01
 4.000000E+03  0.000000E+00  2.500000E+01
 6.000000E+03  0.000000E+00  2.500000E+01
 8.000000E+03  0.000000E+00  2.500000E+01
 1.000000E+04  0.000000E+00  2.500000E+01
 1.200000E+04  0.000000E+00  2.500000E+01
 1.400000E+04  0.000000E+00  2.500000E+01
 1.600000E+04  0.000000E+00  2.500000E+01
 1.800000E+04  0.000000E+00  2.500000E+01
 2.000000E+04  0.000000E+00  2.500000E+01
 0.000000E+00  1.000000E+00  2.500000E+01
 2.000000E+03  1.000000E+00  2.500000E+01
 4.000000E+03  1.000000E+00  2.500000E+01
 6.000000E+03  1.000000E+00  2.500000E+01
 8.000000E+03  1.000000E+00  2.500000E+01
 1.000000E+04  1.000000E+00  2.500000E+01
 1.200000E+04  1.000000E+00  2.500000E+01
 1.400000E+04  1.000000E+00  2.500000E+01
 1.600000E+04  1.000000E+00  2.500000E+01
 1.800000E+04  1.000000E+00  2.500000E+01
 2.000000E+04  1.000000E+00  2.500000E+01
 0.000000E+00  0.000000E+00  3.000000E+01
 2.000000E+03  0.000000E+00  3.000000E+01
 4.000000E+03  0.000000E+00  3.000000E+01
 6.000000E+03  0.000000E+00  3.000000E+01
 8.000000E+03  0.000000E+00  3.000000E+01
 1.000000E+04  0.000000E+00  3.000000E+01
 1.200000E+04  0.000000E+00  3.000000E+01
 1.400000E+04  0.000000E+00  3.000000E+01
 1.600000E+04  0.000000E+00  3.000000E+01
 1.800000E+04  0.000000E+00  3.000000E+01
 2.000000E+04  0.000000E+00  3.000000E+01
 0.000000E+00  1.000000E+00  3.000000E+01
 2.000000E+03  1.000000E+00  3.000000E+01
 4.000000E+03  1.000000E+00  3.000000E+01
 6.000000E+03  1.000000E+00  3.000000E+01
 8.000000E+03  1.000000E+00  3.000000E+01
 1.000000E+04  1.000000E+00  3.000000E+01
 1.200000E+04  1.000000E+00  3.000000E+01
 1.400000E+04  1.000000E+00  3.000000E+01
 1.600000E+04  1.000000E+00  3.000000E+01
 1.800000E+04  1.000000E+00  3.000000E+01
 2.000000E+04  1.000000E+00  3.000000E+01
 0.000000E+00  0.000000E+00  3.500000E+01
 2.000000E+03  0.000000E+00  3.500000E+01
 4.000000E+03  0.000000E+00  3.500000E+01
 6.000000E+03  0.000000E+00  3.500000E+01
 8.000000E+03  0.000000E+00  3.500000E+01
 1.000000E+04  0.000000E+00  3.500000E+01
 1.200000E+04  0.000000E+00  3.500000E+01
 1.400000E+04  0.000000E+00  3.500000E+01
 1.600000E+04  0.000000E+00  3.500000E+01
 1.800000E+04  0.000000E+00  3.500000E+01
 2.000000E+04  0.000000E+00  3.500000E+01
 0.000000E+00  1.000000E+00  3.500000E+01
 2.000000E+03  1.000000E+00  3.500000E+01
 4.000000E+03  1.000000E+00  3.500000E+01
 6.000000E+03  1.000000E+00  3.500000E+01
 8.000000E+03  1.000000E+00  3.500000E+01
 1.000000E+04  1.000000E+00  3.500000E+01
 1.200000E+04  1.000000E+00  3.500000E+01
 1.400000E+04  1.000000E+00  3.500000E+01
 1.600000E+04  1.000000E+00  3.500000E+01
 1.800000E+04  1.000000E+00  3.500000E+01
 2.000000E+04  1.000000E+00  3.500000E+01
 0.000000E+00  0.000000E+00  4.000000E+01
 2.000000E+03  0.000000E+00  4.000000E+01
 4.000000E+03  0.000000E+00  4.000000E+01
 6.000000E+03  0.000000E+00  4.000000E+01
 8.000000E+03  0.000000E+00  4.000000E+01
 1.000000E+04  0.000000E+00  4.000000E+01
 1.200000E+04  0.000000E+00  4.000000E+01
 1.400000E+04  0.000000E+00  4.000000E+01
 1.600000E+04  0.000000E+00  4.000000E+01
 1.800000E+04  0.000000E+00  4.000000E+01
 2.000000E+04  0.000000E+00  4.000000E+01
 0.000000E+00  1.000000E+00  4.000000E+01
 2.000000E+03  1.000000E+00  4.000000E+01
 4.000000E+03  1.000000E+00  4.000000E+01
 6.000000E+03  1.000000E+00  4.000000E+01
 8.000000E+03  1.000000E+00  4.000000E+01
 1.000000E+04  1.000000E+00  4.000000E+01
 1.200000E+04  1.000000E+00  4.000000E+01
 1.400000E+04  1.000000E+00  4.000000E+01
 1.600000E+04  1.000000E+00  4.000000E+01
 1.800000E+04  1.000000E+00  4.000000E+01
 2.000000E+04  1.000000E+00  4.000000E+01
 0.000000E+00  0.000000E+00  4.500000E+01
 2.000000E+03  0.000000E+00  4.500000E+01
 4.000000E+03  0.000000E+00  4.500000E+01
 6.000000E+03  0.000000E+00  4.500000E+01
 8.000000E+03  0.000000E+00  4.500000E+01
 1.000000E+04  0.000000E+00  4.500000E+01
 1.200000E+04  0.000000E+00  4.500000E+01
 1.400000E+04  0.000000E+00  4.500000E+01
 1.600000E+04  0.000000E+00  4.500000E+01
 1.800000E+04  0.000000E+00  4.500000E+01
 2.000000E+04  0.000000E+00  4.500000E+01
 0.000000E+00  1.000000E+00  4.500000E+01
 2.000000E+03  1.000000E+00  4.500000E+01
 4.000000E+03  1.000000E+00  4.500000E+01
 6.000000E+03  1.000000E+00  4.500000E+01
 8.000000E+03  1.000000E+00  4.500000E+01
 1.000000E+04  1.000000E+00  4.500000E+01
 1.200000E+04  1.000000E+00  4.500000E+01
 1.400000E+04  1.000000E+00  4.500000E+01
 1.600000E+04  1.000000E+00  4.500000E+01
 1.800000E+04  1.000000E+00  4.500000E+01
 2.000000E+04  1.000000E+00  4.500000E+01
 0.000000E+00  0.000000E+00  5.000000E+01
 2.000000E+03  0.000000E+00  5.000000E+01
 4.000000E+03  0.000000E+00  5.000000E+01
 6.000000E+03  0.000000E+00  5.000000E+01
 8.000000E+03  0.000000E+00  5.000000E+01
 1.000000E+04  0.000000E+00  5.000000E+01
 1.200000E+04  0.000000E+00  5.000000E+01
 1.400000E+04  0.000000E+00  5.000000E+01
 1.600000E+04  0.000000E+00  5.000000E+01
 1.800000E+04  0.000000E+00  5.000000E+01
 2.000000E+04  0.000000E+00  5.000000E+01
 0.000000E+00  1.000000E+00  5.000000E+01
 2.000000E+03  1.000000E+00  5.000000E+01
 4.000000E+03  1.000000E+00  5.000000E+01
 6.000000E+03  1.000000E+00  5.000000E+01
[...]
CELL_DATA      200
SCALARS Vlx                  float 1
LOOKUP_TABLE default
 6.354387E-02  3.276964E-02  9.807602E-03  2.717774E-03  7.093334E-04  3.224567E-04  6.402003E-04  1.758302E-03  3.889479E-03  5.973950E-03
 6.354679E-02  3.277096E-02  9.807898E-03  2.717856E-03  7.093548E-04  3.224664E-04  6.402196E-04  1.758355E-03  3.889596E-03  5.974111E-03
 6.355069E-02  3.277261E-02  9.808194E-03  2.717938E-03  7.093761E-04  3.224761E-04  6.402389E-04  1.758408E-03  3.889713E-03  5.974273E-03
 6.355559E-02  3.277459E-02  9.808489E-03  2.718019E-03  7.093975E-04  3.224858E-04  6.402581E-04  1.758461E-03  3.889830E-03  5.974435E-03
 6.356148E-02  3.277690E-02  9.808784E-03  2.718101E-03  7.094188E-04  3.224955E-04  6.402774E-04  1.758514E-03  3.889948E-03  5.974597E-03
 6.356837E-02  3.277955E-02  9.809080E-03  2.718183E-03  7.094401E-04  3.225052E-04  6.402966E-04  1.758567E-03  3.890065E-03  5.974758E-03
 6.357624E-02  3.278252E-02  9.809375E-03  2.718265E-03  7.094614E-04  3.225149E-04  6.403159E-04  1.758620E-03  3.890182E-03  5.974920E-03
 6.358263E-02  3.278500E-02  9.809670E-03  2.718346E-03  7.094827E-04  3.225246E-04  6.403351E-04  1.758673E-03  3.890299E-03  5.975082E-03
 6.358753E-02  3.278698E-02  9.809966E-03  2.718428E-03  7.095040E-04  3.225343E-04  6.403544E-04  1.758725E-03  3.890416E-03  5.975243E-03
 6.359094E-02  3.278847E-02  9.810261E-03  2.718510E-03  7.095253E-04  3.225439E-04  6.403736E-04  1.758778E-03  3.890533E-03  5.975405E-03
 6.359286E-02  3.278946E-02  9.810556E-03  2.718591E-03  7.095466E-04  3.225536E-04  6.403928E-04  1.758831E-03  3.890650E-03  5.975567E-03
 6.359329E-02  3.278995E-02  9.810851E-03  2.718673E-03  7.095679E-04  3.225633E-04  6.404120E-04  1.758884E-03  3.890768E-03  5.975728E-03
 6.359222E-02  3.278994E-02  9.811146E-03  2.718755E-03  7.095892E-04  3.225730E-04  6.404313E-04  1.758937E-03  3.890885E-03  5.975890E-03
 6.358966E-02  3.278944E-02  9.811441E-03  2.718836E-03  7.096105E-04  3.225826E-04  6.404505E-04  1.758990E-03  3.891002E-03  5.976052E-03
 6.358562E-02  3.278844E-02  9.811736E-03  2.718918E-03  7.096318E-04  3.225923E-04  6.404697E-04  1.759043E-03  3.891119E-03  5.976213E-03
 6.358256E-02  3.278777E-02  9.812031E-03  2.719000E-03  7.096531E-04  3.226020E-04  6.404890E-04  1.759096E-03  3.891236E-03  5.976375E-03
 6.358050E-02  3.278743E-02  9.812326E-03  2.719081E-03  7.096744E-04  3.226117E-04  6.405082E-04  1.759148E-03  3.891353E-03  5.976536E-03
 6.357943E-02  3.278742E-02  9.812621E-03  2.719163E-03  7.096957E-04  3.226214E-04  6.405275E-04  1.759201E-03  3.891470E-03  5.976698E-03
 6.357936E-02  3.278774E-02  9.812916E-03  2.719245E-03  7.097170E-04  3.226310E-04  6.405467E-04  1.759254E-03  3.891587E-03  5.976859E-03
 6.358028E-02  3.278840E-02  9.813211E-03  2.719327E-03  7.097384E-04  3.226407E-04  6.405660E-04  1.759307E-03  3.891704E-03  5.977020E-03


SCALARS Vly                  float 1
LOOKUP_TABLE default
 0.000000E+00  0.000000E+00  0.000000E+00  0.000000E+00  0.000000E+00  0.000000E+00  0.000000E+00  0.000000E+00  0.000000E+00  0.000000E+00
 0.000000E+00  0.000000E+00  0.000000E+00  0.000000E+00  0.000000E+00  0.000000E+00  0.000000E+00  0.000000E+00  0.000000E+00  0.000000E+00
 0.000000E+00  0.000000E+00  0.000000E+00  0.000000E+00  0.000000E+00  0.000000E+00  0.000000E+00  0.000000E+00  0.000000E+00  0.000000E+00
 0.000000E+00  0.000000E+00  0.000000E+00  0.000000E+00  0.000000E+00  0.000000E+00  0.000000E+00  0.000000E+00  0.000000E+00  0.000000E+00
 0.000000E+00  0.000000E+00  0.000000E+00  0.000000E+00  0.000000E+00  0.000000E+00  0.000000E+00  0.000000E+00  0.000000E+00  0.000000E+00
 0.000000E+00  0.000000E+00  0.000000E+00  0.000000E+00  0.000000E+00  0.000000E+00  0.000000E+00  0.000000E+00  0.000000E+00  0.000000E+00
 0.000000E+00  0.000000E+00  0.000000E+00  0.000000E+00  0.000000E+00  0.000000E+00  0.000000E+00  0.000000E+00  0.000000E+00  0.000000E+00
 0.000000E+00  0.000000E+00  0.000000E+00  0.000000E+00  0.000000E+00  0.000000E+00  0.000000E+00  0.000000E+00  0.000000E+00  0.000000E+00
 0.000000E+00  0.000000E+00  0.000000E+00  0.000000E+00  0.000000E+00  0.000000E+00  0.000000E+00  0.000000E+00  0.000000E+00  0.000000E+00
 0.000000E+00  0.000000E+00  0.000000E+00  0.000000E+00  0.000000E+00  0.000000E+00  0.000000E+00  0.000000E+00  0.000000E+00  0.000000E+00
 0.000000E+00  0.000000E+00  0.000000E+00  0.000000E+00  0.000000E+00  0.000000E+00  0.000000E+00  0.000000E+00  0.000000E+00  0.000000E+00
 0.000000E+00  0.000000E+00  0.000000E+00  0.000000E+00  0.000000E+00  0.000000E+00  0.000000E+00  0.000000E+00  0.000000E+00  0.000000E+00
 0.000000E+00  0.000000E+00  0.000000E+00  0.000000E+00  0.000000E+00  0.000000E+00  0.000000E+00  0.000000E+00  0.000000E+00  0.000000E+00
 0.000000E+00  0.000000E+00  0.000000E+00  0.000000E+00  0.000000E+00  0.000000E+00  0.000000E+00  0.000000E+00  0.000000E+00  0.000000E+00
 0.000000E+00  0.000000E+00  0.000000E+00  0.000000E+00  0.000000E+00  0.000000E+00  0.000000E+00  0.000000E+00  0.000000E+00  0.000000E+00
 0.000000E+00  0.000000E+00  0.000000E+00  0.000000E+00  0.000000E+00  0.000000E+00  0.000000E+00  0.000000E+00  0.000000E+00  0.000000E+00
 0.000000E+00  0.000000E+00  0.000000E+00  0.000000E+00  0.000000E+00  0.000000E+00  0.000000E+00  0.000000E+00  0.000000E+00  0.000000E+00
 0.000000E+00  0.000000E+00  0.000000E+00  0.000000E+00  0.000000E+00  0.000000E+00  0.000000E+00  0.000000E+00  0.000000E+00  0.000000E+00
 0.000000E+00  0.000000E+00  0.000000E+00  0.000000E+00  0.000000E+00  0.000000E+00  0.000000E+00  0.000000E+00  0.000000E+00  0.000000E+00
 0.000000E+00  0.000000E+00  0.000000E+00  0.000000E+00  0.000000E+00  0.000000E+00  0.000000E+00  0.000000E+00  0.000000E+00  0.000000E+00


SCALARS Vlz                  float 1
LOOKUP_TABLE default
-3.975921E-04  5.548754E-08  3.364910E-08  1.119997E-08  2.884799E-09 -1.705175E-10 -2.798333E-09 -7.379195E-09 -1.260013E-08 -9.987709E-09
-5.964098E-04  7.993135E-08  4.870854E-08  1.621226E-08  4.174879E-09 -2.476352E-10 -4.051435E-09 -1.068129E-08 -1.824232E-08 -1.445852E-08
-9.940693E-04  1.263484E-07  7.706427E-08  2.564707E-08  6.603310E-09 -3.923916E-10 -6.411315E-09 -1.689973E-08 -2.886456E-08 -2.287435E-08
-1.391779E-03  1.686499E-07  1.018913E-07  3.390559E-08  8.727999E-09 -5.186886E-10 -8.475773E-09 -2.234539E-08 -3.816278E-08 -3.024302E-08
-1.789545E-03  2.084875E-07  1.231855E-07  4.098847E-08  1.054910E-08 -6.277107E-10 -1.024597E-08 -2.701565E-08 -4.613670E-08 -3.656621E-08
-2.187372E-03  2.475156E-07  1.409439E-07  4.689569E-08  1.206776E-08 -7.190003E-10 -1.172301E-08 -3.090898E-08 -5.278738E-08 -4.183785E-08
-2.087881E-03  2.873791E-07  1.551647E-07  5.162798E-08  1.328401E-08 -7.929997E-10 -1.290516E-08 -3.402637E-08 -5.811277E-08 -4.605721E-08
-1.491055E-03  3.276584E-07  1.658437E-07  5.518033E-08  1.419849E-08 -8.490543E-10 -1.379412E-08 -3.636935E-08 -6.211161E-08 -4.922672E-08
-8.942554E-04  3.658695E-07  1.729792E-07  5.755201E-08  1.480955E-08 -8.855505E-10 -1.438691E-08 -3.793573E-08 -6.478469E-08 -5.134378E-08
-2.974739E-04  3.995213E-07  1.765695E-07  5.874357E-08  1.511665E-08 -9.047020E-10 -1.468383E-08 -3.872271E-08 -6.612858E-08 -5.240704E-08
 2.992959E-04  4.261241E-07  1.766102E-07  5.875476E-08  1.512108E-08 -9.057330E-10 -1.468704E-08 -3.873102E-08 -6.614366E-08 -5.241756E-08
 8.960613E-04  4.431857E-07  1.731010E-07  5.758803E-08  1.482111E-08 -8.861760E-10 -1.439481E-08 -3.796065E-08 -6.482999E-08 -5.137508E-08
 1.492831E-03  4.482140E-07  1.660402E-07  5.523964E-08  1.421623E-08 -8.479012E-10 -1.380825E-08 -3.641060E-08 -6.218362E-08 -4.927823E-08
 2.089612E-03  4.387154E-07  1.554229E-07  5.170819E-08  1.330647E-08 -7.920905E-10 -1.292592E-08 -3.408224E-08 -5.820559E-08 -4.612559E-08
 2.189031E-03  4.122068E-07  1.412453E-07  4.699419E-08  1.209278E-08 -7.197126E-10 -1.174642E-08 -3.097364E-08 -5.289619E-08 -4.191731E-08
 1.791074E-03  3.682661E-07  1.235070E-07  4.109390E-08  1.057434E-08 -6.306473E-10 -1.027044E-08 -2.708279E-08 -4.625417E-08 -3.665372E-08
 1.393101E-03  3.085339E-07  1.022066E-07  3.400725E-08  8.750585E-09 -5.226351E-10 -8.497900E-09 -2.241026E-08 -3.827809E-08 -3.033128E-08
 9.951061E-04  2.346622E-07  7.733893E-08  2.573426E-08  6.623001E-09 -3.960735E-10 -6.430510E-09 -1.695610E-08 -2.896394E-08 -2.295005E-08
 5.970856E-04  1.483019E-07  4.890333E-08  1.627332E-08  4.189983E-09 -2.500838E-10 -4.065553E-09 -1.072089E-08 -1.831298E-08 -1.451090E-08
 3.980682E-04  1.022060E-07  3.379425E-08  1.124574E-08  2.896669E-09 -1.718185E-10 -2.807690E-09 -7.407992E-09 -1.265393E-08 -1.002625E-08


SCALARS Vgx                  float 1
LOOKUP_TABLE default
 0.000000E+00  0.000000E+00  0.000000E+00  0.000000E+00  0.000000E+00  0.000000E+00  0.000000E+00  0.000000E+00  0.000000E+00  0.000000E+00
 0.000000E+00  0.000000E+00  0.000000E+00  0.000000E+00  0.000000E+00  0.000000E+00  0.000000E+00  0.000000E+00  0.000000E+00  0.000000E+00
 0.000000E+00  0.000000E+00  0.000000E+00  0.000000E+00  0.000000E+00  0.000000E+00  0.000000E+00  0.000000E+00  0.000000E+00  0.000000E+00
 0.000000E+00  0.000000E+00  0.000000E+00  0.000000E+00  0.000000E+00  0.000000E+00  0.000000E+00  0.000000E+00  0.000000E+00  0.000000E+00
 0.000000E+00  0.000000E+00  0.000000E+00  0.000000E+00  0.000000E+00  0.000000E+00  0.000000E+00  0.000000E+00  0.000000E+00  0.000000E+00
 0.000000E+00  0.000000E+00  0.000000E+00  0.000000E+00  0.000000E+00  0.000000E+00  0.000000E+00  0.000000E+00  0.000000E+00  0.000000E+00
 0.000000E+00  0.000000E+00  0.000000E+00  0.000000E+00  0.000000E+00  0.000000E+00  0.000000E+00  0.000000E+00  0.000000E+00  0.000000E+00
 0.000000E+00  0.000000E+00  0.000000E+00  0.000000E+00  0.000000E+00  0.000000E+00  0.000000E+00  0.000000E+00  0.000000E+00  0.000000E+00
 0.000000E+00  0.000000E+00  0.000000E+00  0.000000E+00  0.000000E+00  0.000000E+00  0.000000E+00  0.000000E+00  0.000000E+00  0.000000E+00
 0.000000E+00  0.000000E+00  0.000000E+00  0.000000E+00  0.000000E+00  0.000000E+00  0.000000E+00  0.000000E+00  0.000000E+00  0.000000E+00
 0.000000E+00  0.000000E+00  0.000000E+00  0.000000E+00  0.000000E+00  0.000000E+00  0.000000E+00  0.000000E+00  0.000000E+00  0.000000E+00
 0.000000E+00  0.000000E+00  0.000000E+00  0.000000E+00  0.000000E+00  0.000000E+00  0.000000E+00  0.000000E+00  0.000000E+00  0.000000E+00
 0.000000E+00  0.000000E+00  0.000000E+00  0.000000E+00  0.000000E+00  0.000000E+00  0.000000E+00  0.000000E+00  0.000000E+00  0.000000E+00
 0.000000E+00  0.000000E+00  0.000000E+00  0.000000E+00  0.000000E+00  0.000000E+00  0.000000E+00  0.000000E+00  0.000000E+00  0.000000E+00
 0.000000E+00  0.000000E+00  0.000000E+00  0.000000E+00  0.000000E+00  0.000000E+00  0.000000E+00  0.000000E+00  0.000000E+00  0.000000E+00
 0.000000E+00  0.000000E+00  0.000000E+00  0.000000E+00  0.000000E+00  0.000000E+00  0.000000E+00  0.000000E+00  0.000000E+00  0.000000E+00
 0.000000E+00  0.000000E+00  0.000000E+00  0.000000E+00  0.000000E+00  0.000000E+00  0.000000E+00  0.000000E+00  0.000000E+00  0.000000E+00
 0.000000E+00  0.000000E+00  0.000000E+00  0.000000E+00  0.000000E+00  0.000000E+00  0.000000E+00  0.000000E+00  0.000000E+00  0.000000E+00
 0.000000E+00  0.000000E+00  0.000000E+00  0.000000E+00  0.000000E+00  0.000000E+00  0.000000E+00  0.000000E+00  0.000000E+00  0.000000E+00
 0.000000E+00  0.000000E+00  0.000000E+00  0.000000E+00  0.000000E+00  0.000000E+00  0.000000E+00  0.000000E+00  0.000000E+00  0.000000E+00


SCALARS Vgy                  float 1
LOOKUP_TABLE default
 0.000000E+00  0.000000E+00  0.000000E+00  0.000000E+00  0.000000E+00  0.000000E+00  0.000000E+00  0.000000E+00  0.000000E+00  0.000000E+00
 0.000000E+00  0.000000E+00  0.000000E+00  0.000000E+00  0.000000E+00  0.000000E+00  0.000000E+00  0.000000E+00  0.000000E+00  0.000000E+00
 0.000000E+00  0.000000E+00  0.000000E+00  0.000000E+00  0.000000E+00  0.000000E+00  0.000000E+00  0.000000E+00  0.000000E+00  0.000000E+00
 0.000000E+00  0.000000E+00  0.000000E+00  0.000000E+00  0.000000E+00  0.000000E+00  0.000000E+00  0.000000E+00  0.000000E+00  0.000000E+00
 0.000000E+00  0.000000E+00  0.000000E+00  0.000000E+00  0.000000E+00  0.000000E+00  0.000000E+00  0.000000E+00  0.000000E+00  0.000000E+00
 0.000000E+00  0.000000E+00  0.000000E+00  0.000000E+00  0.000000E+00  0.000000E+00  0.000000E+00  0.000000E+00  0.000000E+00  0.000000E+00
 0.000000E+00  0.000000E+00  0.000000E+00  0.000000E+00  0.000000E+00  0.000000E+00  0.000000E+00  0.000000E+00  0.000000E+00  0.000000E+00
 0.000000E+00  0.000000E+00  0.000000E+00  0.000000E+00  0.000000E+00  0.000000E+00  0.000000E+00  0.000000E+00  0.000000E+00  0.000000E+00
 0.000000E+00  0.000000E+00  0.000000E+00  0.000000E+00  0.000000E+00  0.000000E+00  0.000000E+00  0.000000E+00  0.000000E+00  0.000000E+00
 0.000000E+00  0.000000E+00  0.000000E+00  0.000000E+00  0.000000E+00  0.000000E+00  0.000000E+00  0.000000E+00  0.000000E+00  0.000000E+00
 0.000000E+00  0.000000E+00  0.000000E+00  0.000000E+00  0.000000E+00  0.000000E+00  0.000000E+00  0.000000E+00  0.000000E+00  0.000000E+00
 0.000000E+00  0.000000E+00  0.000000E+00  0.000000E+00  0.000000E+00  0.000000E+00  0.000000E+00  0.000000E+00  0.000000E+00  0.000000E+00
 0.000000E+00  0.000000E+00  0.000000E+00  0.000000E+00  0.000000E+00  0.000000E+00  0.000000E+00  0.000000E+00  0.000000E+00  0.000000E+00
 0.000000E+00  0.000000E+00  0.000000E+00  0.000000E+00  0.000000E+00  0.000000E+00  0.000000E+00  0.000000E+00  0.000000E+00  0.000000E+00
 0.000000E+00  0.000000E+00  0.000000E+00  0.000000E+00  0.000000E+00  0.000000E+00  0.000000E+00  0.000000E+00  0.000000E+00  0.000000E+00
 0.000000E+00  0.000000E+00  0.000000E+00  0.000000E+00  0.000000E+00  0.000000E+00  0.000000E+00  0.000000E+00  0.000000E+00  0.000000E+00
 0.000000E+00  0.000000E+00  0.000000E+00  0.000000E+00  0.000000E+00  0.000000E+00  0.000000E+00  0.000000E+00  0.000000E+00  0.000000E+00
 0.000000E+00  0.000000E+00  0.000000E+00  0.000000E+00  0.000000E+00  0.000000E+00  0.000000E+00  0.000000E+00  0.000000E+00  0.000000E+00
 0.000000E+00  0.000000E+00  0.000000E+00  0.000000E+00  0.000000E+00  0.000000E+00  0.000000E+00  0.000000E+00  0.000000E+00  0.000000E+00
 0.000000E+00  0.000000E+00  0.000000E+00  0.000000E+00  0.000000E+00  0.000000E+00  0.000000E+00  0.000000E+00  0.000000E+00  0.000000E+00


SCALARS Vgz                  float 1
LOOKUP_TABLE default
 0.000000E+00  0.000000E+00  0.000000E+00  0.000000E+00  0.000000E+00  0.000000E+00  0.000000E+00  0.000000E+00  0.000000E+00  0.000000E+00
 0.000000E+00  0.000000E+00  0.000000E+00  0.000000E+00  0.000000E+00  0.000000E+00  0.000000E+00  0.000000E+00  0.000000E+00  0.000000E+00
 0.000000E+00  0.000000E+00  0.000000E+00  0.000000E+00  0.000000E+00  0.000000E+00  0.000000E+00  0.000000E+00  0.000000E+00  0.000000E+00
 0.000000E+00  0.000000E+00  0.000000E+00  0.000000E+00  0.000000E+00  0.000000E+00  0.000000E+00  0.000000E+00  0.000000E+00  0.000000E+00
 0.000000E+00  0.000000E+00  0.000000E+00  0.000000E+00  0.000000E+00  0.000000E+00  0.000000E+00  0.000000E+00  0.000000E+00  0.000000E+00
 0.000000E+00  0.000000E+00  0.000000E+00  0.000000E+00  0.000000E+00  0.000000E+00  0.000000E+00  0.000000E+00  0.000000E+00  0.000000E+00
 0.000000E+00  0.000000E+00  0.000000E+00  0.000000E+00  0.000000E+00  0.000000E+00  0.000000E+00  0.000000E+00  0.000000E+00  0.000000E+00
 0.000000E+00  0.000000E+00  0.000000E+00  0.000000E+00  0.000000E+00  0.000000E+00  0.000000E+00  0.000000E+00  0.000000E+00  0.000000E+00
 0.000000E+00  0.000000E+00  0.000000E+00  0.000000E+00  0.000000E+00  0.000000E+00  0.000000E+00  0.000000E+00  0.000000E+00  0.000000E+00
 0.000000E+00  0.000000E+00  0.000000E+00  0.000000E+00  0.000000E+00  0.000000E+00  0.000000E+00  0.000000E+00  0.000000E+00  0.000000E+00
 0.000000E+00  0.000000E+00  0.000000E+00  0.000000E+00  0.000000E+00  0.000000E+00  0.000000E+00  0.000000E+00  0.000000E+00  0.000000E+00
 0.000000E+00  0.000000E+00  0.000000E+00  0.000000E+00  0.000000E+00  0.000000E+00  0.000000E+00  0.000000E+00  0.000000E+00  0.000000E+00
 0.000000E+00  0.000000E+00  0.000000E+00  0.000000E+00  0.000000E+00  0.000000E+00  0.000000E+00  0.000000E+00  0.000000E+00  0.000000E+00
 0.000000E+00  0.000000E+00  0.000000E+00  0.000000E+00  0.000000E+00  0.000000E+00  0.000000E+00  0.000000E+00  0.000000E+00  0.000000E+00
 0.000000E+00  0.000000E+00  0.000000E+00  0.000000E+00  0.000000E+00  0.000000E+00  0.000000E+00  0.000000E+00  0.000000E+00  0.000000E+00
 0.000000E+00  0.000000E+00  0.000000E+00  0.000000E+00  0.000000E+00  0.000000E+00  0.000000E+00  0.000000E+00  0.000000E+00  0.000000E+00
 0.000000E+00  0.000000E+00  0.000000E+00  0.000000E+00  0.000000E+00  0.000000E+00  0.000000E+00  0.000000E+00  0.000000E+00  0.000000E+00
 0.000000E+00  0.000000E+00  0.000000E+00  0.000000E+00  0.000000E+00  0.000000E+00  0.000000E+00  0.000000E+00  0.000000E+00  0.000000E+00
 0.000000E+00  0.000000E+00  0.000000E+00  0.000000E+00  0.000000E+00  0.000000E+00  0.000000E+00  0.000000E+00  0.000000E+00  0.000000E+00
 0.000000E+00  0.000000E+00  0.000000E+00  0.000000E+00  0.000000E+00  0.000000E+00  0.000000E+00  0.000000E+00  0.000000E+00  0.000000E+00


SCALARS Material_ID          int 1
LOOKUP_TABLE default
  1
  1
  1
  1
  1
  1
  1
  1
  1
  1
  1
  1
  1
  1
  1
  1
  1
  1
  1
  1
  1
  1
  1
  1
  1
  1
  1
  1
  1
  1
  1
  1
  1
  1
  1
  1
  1
  1
  1
  1
  1
  1
  1
  1
  1
  1
  1
  1
  1
  1
  1
  1
  1
  1
  1
  1
  1
  1
  1
  1
  1
  1
  1
  1
  1
  1
  1
  1
  1
  1
  1
  1
  1
  1
  1
  1
  1
  1
  1
  1
  1
  1
  1
  1
  1
  1
  1
  1
  1
  1
  1
  1
  1
  1
  1
  1
  1
  1
  1
  1
  1
  1
  1
  1
  1
  1
  1
  1
  1
  1
  1
  1
  1
  1
  1
  1
  1
  1
  1
  1
  1
  1
  1
  1
  1
  1
  1
  1
  1
  1
  1
  1
  1
  1
  1
  1
  1
  1
  1
  1
  1
  1
  1
  1
  1
  1
  1
  1
  1
  1
  1
  1
  1
  1
  1
  1
  1
  1
  1
  1
  1
  1
  1
  1
  1
  1
  1
  1
  1
  1
  1
  1
  1
  1
  1
  1
  1
  1
  1
  1
  1
  1
  1
  1
  1
  1
  1
  1
  1
  1
  1
  1
  1
  1
  1
  1
  1
  1
  1
  1


