# vtk DataFile Version 2.0
PFLOTRAN output
ASCII
DATASET UNSTRUCTURED_GRID
POINTS          462 float
 0.000000E+00  0.000000E+00  0.000000E+00
 2.000000E+03  0.000000E+00  0.000000E+00
 4.000000E+03  0.000000E+00  0.000000E+00
 6.000000E+03  0.000000E+00  0.000000E+00
 8.000000E+03  0.000000E+00  0.000000E+00
 1.000000E+04  0.000000E+00  0.000000E+00
 1.200000E+04  0.000000E+00  0.000000E+00
 1.400000E+04  0.000000E+00  0.000000E+00
 1.600000E+04  0.000000E+00  0.000000E+00
 1.800000E+04  0.000000E+00  0.000000E+00
 2.000000E+04  0.000000E+00  0.000000E+00
 0.000000E+00  1.000000E+00  0.000000E+00
 2.000000E+03  1.000000E+00  0.000000E+00
 4.000000E+03  1.000000E+00  0.000000E+00
 6.000000E+03  1.000000E+00  0.000000E+00
 8.000000E+03  1.000000E+00  0.000000E+00
 1.000000E+04  1.000000E+00  0.000000E+00
 1.200000E+04  1.000000E+00  0.000000E+00
 1.400000E+04  1.000000E+00  0.000000E+00
 1.600000E+04  1.000000E+00  0.000000E+00
 1.800000E+04  1.000000E+00  0.000000E+00
 2.000000E+04  1.000000E+00  0.000000E+00
 0.000000E+00  0.000000E+00  5.000000E+00
 2.000000E+03  0.000000E+00  5.000000E+00
 4.000000E+03  0.000000E+00  5.000000E+00
 6.000000E+03  0.000000E+00  5.000000E+00
 8.000000E+03  0.000000E+00  5.000000E+00
 1.000000E+04  0.000000E+00  5.000000E+00
 1.200000E+04  0.000000E+00  5.000000E+00
 1.400000E+04  0.000000E+00  5.000000E+00
 1.600000E+04  0.000000E+00  5.000000E+00
 1.800000E+04  0.000000E+00  5.000000E+00
 2.000000E+04  0.000000E+00  5.000000E+00
 0.000000E+00  1.000000E+00  5.000000E+00
 2.000000E+03  1.000000E+00  5.000000E+00
 4.000000E+03  1.000000E+00  5.000000E+00
 6.000000E+03  1.000000E+00  5.000000E+00
 8.000000E+03  1.000000E+00  5.000000E+00
 1.000000E+04  1.000000E+00  5.000000E+00
 1.200000E+04  1.000000E+00  5.000000E+00
 1.400000E+04  1.000000E+00  5.000000E+00
 1.600000E+04  1.000000E+00  5.000000E+00
 1.800000E+04  1.000000E+00  5.000000E+00
 2.000000E+04  1.000000E+00  5.000000E+00
 0.000000E+00  0.000000E+00  1.000000E+01
 2.000000E+03  0.000000E+00  1.000000E+01
 4.000000E+03  0.000000E+00  1.000000E+01
 6.000000E+03  0.000000E+00  1.000000E+01
 8.000000E+03  0.000000E+00  1.000000E+01
 1.000000E+04  0.000000E+00  1.000000E+01
 1.200000E+04  0.000000E+00  1.000000E+01
 1.400000E+04  0.000000E+00  1.000000E+01
 1.600000E+04  0.000000E+00  1.000000E+01
 1.800000E+04  0.000000E+00  1.000000E+01
 2.000000E+04  0.000000E+00  1.000000E+01
 0.000000E+00  1.000000E+00  1.000000E+01
 2.000000E+03  1.000000E+00  1.000000E+01
 4.000000E+03  1.000000E+00  1.000000E+01
 6.000000E+03  1.000000E+00  1.000000E+01
 8.000000E+03  1.000000E+00  1.000000E+01
 1.000000E+04  1.000000E+00  1.000000E+01
 1.200000E+04  1.000000E+00  1.000000E+01
 1.400000E+04  1.000000E+00  1.000000E+01
 1.600000E+04  1.000000E+00  1.000000E+01
 1.800000E+04  1.000000E+00  1.000000E+01
 2.000000E+04  1.000000E+00  1.000000E+01
 0.000000E+00  0.000000E+00  1.500000E+01
 2.000000E+03  0.000000E+00  1.500000E+01
 4.000000E+03  0.000000E+00  1.500000E+01
 6.000000E+03  0.000000E+00  1.500000E+01
 8.000000E+03  0.000000E+00  1.500000E+01
 1.000000E+04  0.000000E+00  1.500000E+01
 1.200000E+04  0.000000E+00  1.500000E+01
 1.400000E+04  0.000000E+00  1.500000E+01
 1.600000E+04  0.000000E+00  1.500000E+01
 1.800000E+04  0.000000E+00  1.500000E+01
 2.000000E+04  0.000000E+00  1.500000E+01
 0.000000E+00  1.000000E+00  1.500000E+01
 2.000000E+03  1.000000E+00  1.500000E+01
 4.000000E+03  1.000000E+00  1.500000E+01
 6.000000E+03  1.000000E+00  1.500000E+01
 8.000000E+03  1.000000E+00  1.500000E+01
 1.000000E+04  1.000000E+00  1.500000E+01
 1.200000E+04  1.000000E+00  1.500000E+01
 1.400000E+04  1.000000E+00  1.500000E+01
 1.600000E+04  1.000000E+00  1.500000E+01
 1.800000E+04  1.000000E+00  1.500000E+01
 2.000000E+04  1.000000E+00  1.500000E+01
 0.000000E+00  0.000000E+00  2.000000E+01
 2.000000E+03  0.000000E+00  2.000000E+01
 4.000000E+03  0.000000E+00  2.000000E+01
 6.000000E+03  0.000000E+00  2.000000E+01
 8.000000E+03  0.000000E+00  2.000000E+01
 1.000000E+04  0.000000E+00  2.000000E+01
 1.200000E+04  0.000000E+00  2.000000E+01
 1.400000E+04  0.000000E+00  2.000000E+01
 1.600000E+04  0.000000E+00  2.000000E+01
 1.800000E+04  0.000000E+00  2.000000E+01
 2.000000E+04  0.000000E+00  2.000000E+01
 0.000000E+00  1.000000E+00  2.000000E+01
 2.000000E+03  1.000000E+00  2.000000E+01
 4.000000E+03  1.000000E+00  2.000000E+01
 6.000000E+03  1.000000E+00  2.000000E+01
 8.000000E+03  1.000000E+00  2.000000E+01
 1.000000E+04  1.000000E+00  2.000000E+01
 1.200000E+04  1.000000E+00  2.000000E+01
 1.400000E+04  1.000000E+00  2.000000E+01
 1.600000E+04  1.000000E+00  2.000000E+01
 1.800000E+04  1.000000E+00  2.000000E+01
 2.000000E+04  1.000000E+00  2.000000E+01
 0.000000E+00  0.000000E+00  2.500000E+01
 2.000000E+03  0.000000E+00  2.500000E+01
 4.000000E+03  0.000000E+00  2.500000E+01
 6.000000E+03  0.000000E+00  2.500000E+01
 8.000000E+03  0.000000E+00  2.500000E+01
 1.000000E+04  0.000000E+00  2.500000E+01
 1.200000E+04  0.000000E+00  2.500000E+01
 1.400000E+04  0.000000E+00  2.500000E+01
 1.600000E+04  0.000000E+00  2.500000E+01
 1.800000E+04  0.000000E+00  2.500000E+01
 2.000000E+04  0.000000E+00  2.500000E+01
 0.000000E+00  1.000000E+00  2.500000E+01
 2.000000E+03  1.000000E+00  2.500000E+01
 4.000000E+03  1.000000E+00  2.500000E+01
 6.000000E+03  1.000000E+00  2.500000E+01
 8.000000E+03  1.000000E+00  2.500000E+01
 1.000000E+04  1.000000E+00  2.500000E+01
 1.200000E+04  1.000000E+00  2.500000E+01
 1.400000E+04  1.000000E+00  2.500000E+01
 1.600000E+04  1.000000E+00  2.500000E+01
 1.800000E+04  1.000000E+00  2.500000E+01
 2.000000E+04  1.000000E+00  2.500000E+01
 0.000000E+00  0.000000E+00  3.000000E+01
 2.000000E+03  0.000000E+00  3.000000E+01
 4.000000E+03  0.000000E+00  3.000000E+01
 6.000000E+03  0.000000E+00  3.000000E+01
 8.000000E+03  0.000000E+00  3.000000E+01
 1.000000E+04  0.000000E+00  3.000000E+01
 1.200000E+04  0.000000E+00  3.000000E+01
 1.400000E+04  0.000000E+00  3.000000E+01
 1.600000E+04  0.000000E+00  3.000000E+01
 1.800000E+04  0.000000E+00  3.000000E+01
 2.000000E+04  0.000000E+00  3.000000E+01
 0.000000E+00  1.000000E+00  3.000000E+01
 2.000000E+03  1.000000E+00  3.000000E+01
 4.000000E+03  1.000000E+00  3.000000E+01
 6.000000E+03  1.000000E+00  3.000000E+01
 8.000000E+03  1.000000E+00  3.000000E+01
 1.000000E+04  1.000000E+00  3.000000E+01
 1.200000E+04  1.000000E+00  3.000000E+01
 1.400000E+04  1.000000E+00  3.000000E+01
 1.600000E+04  1.000000E+00  3.000000E+01
 1.800000E+04  1.000000E+00  3.000000E+01
 2.000000E+04  1.000000E+00  3.000000E+01
 0.000000E+00  0.000000E+00  3.500000E+01
 2.000000E+03  0.000000E+00  3.500000E+01
 4.000000E+03  0.000000E+00  3.500000E+01
 6.000000E+03  0.000000E+00  3.500000E+01
 8.000000E+03  0.000000E+00  3.500000E+01
 1.000000E+04  0.000000E+00  3.500000E+01
 1.200000E+04  0.000000E+00  3.500000E+01
 1.400000E+04  0.000000E+00  3.500000E+01
 1.600000E+04  0.000000E+00  3.500000E+01
 1.800000E+04  0.000000E+00  3.500000E+01
 2.000000E+04  0.000000E+00  3.500000E+01
 0.000000E+00  1.000000E+00  3.500000E+01
 2.000000E+03  1.000000E+00  3.500000E+01
 4.000000E+03  1.000000E+00  3.500000E+01
 6.000000E+03  1.000000E+00  3.500000E+01
 8.000000E+03  1.000000E+00  3.500000E+01
 1.000000E+04  1.000000E+00  3.500000E+01
 1.200000E+04  1.000000E+00  3.500000E+01
 1.400000E+04  1.000000E+00  3.500000E+01
 1.600000E+04  1.000000E+00  3.500000E+01
 1.800000E+04  1.000000E+00  3.500000E+01
 2.000000E+04  1.000000E+00  3.500000E+01
 0.000000E+00  0.000000E+00  4.000000E+01
 2.000000E+03  0.000000E+00  4.000000E+01
 4.000000E+03  0.000000E+00  4.000000E+01
 6.000000E+03  0.000000E+00  4.000000E+01
 8.000000E+03  0.000000E+00  4.000000E+01
 1.000000E+04  0.000000E+00  4.000000E+01
 1.200000E+04  0.000000E+00  4.000000E+01
 1.400000E+04  0.000000E+00  4.000000E+01
 1.600000E+04  0.000000E+00  4.000000E+01
 1.800000E+04  0.000000E+00  4.000000E+01
 2.000000E+04  0.000000E+00  4.000000E+01
 0.000000E+00  1.000000E+00  4.000000E+01
 2.000000E+03  1.000000E+00  4.000000E+01
 4.000000E+03  1.000000E+00  4.000000E+01
 6.000000E+03  1.000000E+00  4.000000E+01
 8.000000E+03  1.000000E+00  4.000000E+01
 1.000000E+04  1.000000E+00  4.000000E+01
 1.200000E+04  1.000000E+00  4.000000E+01
 1.400000E+04  1.000000E+00  4.000000E+01
 1.600000E+04  1.000000E+00  4.000000E+01
 1.800000E+04  1.000000E+00  4.000000E+01
 2.000000E+04  1.000000E+00  4.000000E+01
 0.000000E+00  0.000000E+00  4.500000E+01
 2.000000E+03  0.000000E+00  4.500000E+01
 4.000000E+03  0.000000E+00  4.500000E+01
 6.000000E+03  0.000000E+00  4.500000E+01
 8.000000E+03  0.000000E+00  4.500000E+01
 1.000000E+04  0.000000E+00  4.500000E+01
 1.200000E+04  0.000000E+00  4.500000E+01
 1.400000E+04  0.000000E+00  4.500000E+01
 1.600000E+04  0.000000E+00  4.500000E+01
 1.800000E+04  0.000000E+00  4.500000E+01
 2.000000E+04  0.000000E+00  4.500000E+01
 0.000000E+00  1.000000E+00  4.500000E+01
 2.000000E+03  1.000000E+00  4.500000E+01
 4.000000E+03  1.000000E+00  4.500000E+01
 6.000000E+03  1.000000E+00  4.500000E+01
 8.000000E+03  1.000000E+00  4.500000E+01
 1.000000E+04  1.000000E+00  4.500000E+01
 1.200000E+04  1.000000E+00  4.500000E+01
 1.400000E+04  1.000000E+00  4.500000E+01
 1.600000E+04  1.000000E+00  4.500000E+01
 1.800000E+04  1.000000E+00  4.500000E+01
 2.000000E+04  1.000000E+00  4.500000E+01
 0.000000E+00  0.000000E+00  5.000000E+01
 2.000000E+03  0.000000E+00  5.000000E+01
 4.000000E+03  0.000000E+00  5.000000E+01
 6.000000E+03  0.000000E+00  5.000000E+01
 8.000000E+03  0.000000E+00  5.000000E+01
 1.000000E+04  0.000000E+00  5.000000E+01
 1.200000E+04  0.000000E+00  5.000000E+01
 1.400000E+04  0.000000E+00  5.000000E+01
 1.600000E+04  0.000000E+00  5.000000E+01
 1.800000E+04  0.000000E+00  5.000000E+01
 2.000000E+04  0.000000E+00  5.000000E+01
 0.000000E+00  1.000000E+00  5.000000E+01
 2.000000E+03  1.000000E+00  5.000000E+01
 4.000000E+03  1.000000E+00  5.000000E+01
 6.000000E+03  1.000000E+00  5.000000E+01
[...]
CELL_DATA      200
SCALARS Porosity             float 1
LOOKUP_TABLE default
 4.377100E-01  4.377099E-01  4.377099E-01  4.377099E-01  4.377099E-01  4.377099E-01  4.377099E-01  4.377099E-01  4.377099E-01  4.377099E-01
 4.377100E-01  4.377099E-01  4.377099E-01  4.377099E-01  4.377099E-01  4.377099E-01  4.377099E-01  4.377099E-01  4.377099E-01  4.377099E-01
 4.377100E-01  4.377099E-01  4.377099E-01  4.377099E-01  4.377099E-01  4.377099E-01  4.377099E-01  4.377099E-01  4.377099E-01  4.377099E-01
 4.377100E-01  4.377099E-01  4.377099E-01  4.377099E-01  4.377099E-01  4.377099E-01  4.377099E-01  4.377099E-01  4.377099E-01  4.377099E-01
 4.377100E-01  4.377099E-01  4.377099E-01  4.377099E-01  4.377099E-01  4.377099E-01  4.377099E-01  4.377099E-01  4.377099E-01  4.377099E-01
 4.377100E-01  4.377099E-01  4.377099E-01  4.377099E-01  4.377099E-01  4.377099E-01  4.377099E-01  4.377099E-01  4.377099E-01  4.377099E-01
 4.377097E-01  4.377099E-01  4.377099E-01  4.377099E-01  4.377099E-01  4.377099E-01  4.377099E-01  4.377099E-01  4.377099E-01  4.377099E-01
 4.377097E-01  4.377099E-01  4.377099E-01  4.377099E-01  4.377099E-01  4.377099E-01  4.377099E-01  4.377099E-01  4.377099E-01  4.377099E-01
 4.377097E-01  4.377099E-01  4.377099E-01  4.377099E-01  4.377099E-01  4.377099E-01  4.377099E-01  4.377099E-01  4.377099E-01  4.377099E-01
 4.377097E-01  4.377099E-01  4.377099E-01  4.377099E-01  4.377099E-01  4.377099E-01  4.377099E-01  4.377099E-01  4.377099E-01  4.377099E-01
 4.377097E-01  4.377099E-01  4.377099E-01  4.377099E-01  4.377099E-01  4.377099E-01  4.377099E-01  4.377099E-01  4.377099E-01  4.377099E-01
 4.377097E-01  4.377099E-01  4.377099E-01  4.377099E-01  4.377099E-01  4.377099E-01  4.377099E-01  4.377099E-01  4.377099E-01  4.377099E-01
 4.377097E-01  4.377099E-01  4.377099E-01  4.377099E-01  4.377099E-01  4.377099E-01  4.377099E-01  4.377099E-01  4.377099E-01  4.377099E-01
 4.377097E-01  4.377099E-01  4.377099E-01  4.377099E-01  4.377099E-01  4.377099E-01  4.377099E-01  4.377099E-01  4.377099E-01  4.377099E-01
 4.377100E-01  4.377099E-01  4.377099E-01  4.377099E-01  4.377099E-01  4.377099E-01  4.377099E-01  4.377099E-01  4.377099E-01  4.377099E-01
 4.377100E-01  4.377099E-01  4.377099E-01  4.377099E-01  4.377099E-01  4.377099E-01  4.377099E-01  4.377099E-01  4.377099E-01  4.377099E-01
 4.377100E-01  4.377099E-01  4.377099E-01  4.377099E-01  4.377099E-01  4.377099E-01  4.377099E-01  4.377099E-01  4.377099E-01  4.377099E-01
 4.377100E-01  4.377099E-01  4.377099E-01  4.377099E-01  4.377099E-01  4.377099E-01  4.377099E-01  4.377099E-01  4.377099E-01  4.377099E-01
 4.377100E-01  4.377099E-01  4.377099E-01  4.377099E-01  4.377099E-01  4.377099E-01  4.377099E-01  4.377099E-01  4.377099E-01  4.377099E-01
 4.377100E-01  4.377099E-01  4.377099E-01  4.377099E-01  4.377099E-01  4.377099E-01  4.377099E-01  4.377099E-01  4.377099E-01  4.377099E-01


SCALARS Permeability         float 1
LOOKUP_TABLE default
 8.829803E-13  8.829802E-13  8.829802E-13  8.829802E-13  8.829801E-13  8.829801E-13  8.829801E-13  8.829801E-13  8.829801E-13  8.829801E-13
 8.829803E-13  8.829802E-13  8.829802E-13  8.829802E-13  8.829801E-13  8.829801E-13  8.829801E-13  8.829801E-13  8.829801E-13  8.829801E-13
 8.829803E-13  8.829802E-13  8.829802E-13  8.829802E-13  8.829801E-13  8.829801E-13  8.829801E-13  8.829801E-13  8.829801E-13  8.829801E-13
 8.829803E-13  8.829802E-13  8.829802E-13  8.829802E-13  8.829801E-13  8.829801E-13  8.829801E-13  8.829801E-13  8.829801E-13  8.829801E-13
 8.829803E-13  8.829802E-13  8.829802E-13  8.829802E-13  8.829801E-13  8.829801E-13  8.829801E-13  8.829801E-13  8.829801E-13  8.829801E-13
 8.829803E-13  8.829802E-13  8.829802E-13  8.829802E-13  8.829802E-13  8.829801E-13  8.829801E-13  8.829801E-13  8.829801E-13  8.829801E-13
 8.829789E-13  8.829802E-13  8.829802E-13  8.829802E-13  8.829802E-13  8.829801E-13  8.829801E-13  8.829801E-13  8.829801E-13  8.829801E-13
 8.829789E-13  8.829802E-13  8.829802E-13  8.829802E-13  8.829802E-13  8.829801E-13  8.829801E-13  8.829801E-13  8.829801E-13  8.829801E-13
 8.829789E-13  8.829802E-13  8.829802E-13  8.829802E-13  8.829802E-13  8.829801E-13  8.829801E-13  8.829801E-13  8.829801E-13  8.829801E-13
 8.829790E-13  8.829802E-13  8.829802E-13  8.829802E-13  8.829802E-13  8.829802E-13  8.829801E-13  8.829801E-13  8.829801E-13  8.829801E-13
 8.829790E-13  8.829802E-13  8.829802E-13  8.829802E-13  8.829802E-13  8.829802E-13  8.829801E-13  8.829801E-13  8.829801E-13  8.829801E-13
 8.829790E-13  8.829802E-13  8.829802E-13  8.829802E-13  8.829802E-13  8.829802E-13  8.829801E-13  8.829801E-13  8.829801E-13  8.829801E-13
 8.829790E-13  8.829803E-13  8.829802E-13  8.829802E-13  8.829802E-13  8.829802E-13  8.829802E-13  8.829801E-13  8.829801E-13  8.829801E-13
 8.829790E-13  8.829803E-13  8.829802E-13  8.829802E-13  8.829802E-13  8.829802E-13  8.829802E-13  8.829801E-13  8.829801E-13  8.829801E-13
 8.829803E-13  8.829803E-13  8.829802E-13  8.829802E-13  8.829802E-13  8.829802E-13  8.829802E-13  8.829802E-13  8.829801E-13  8.829801E-13
 8.829803E-13  8.829803E-13  8.829802E-13  8.829802E-13  8.829802E-13  8.829802E-13  8.829802E-13  8.829802E-13  8.829801E-13  8.829801E-13
 8.829803E-13  8.829803E-13  8.829802E-13  8.829802E-13  8.829802E-13  8.829802E-13  8.829802E-13  8.829802E-13  8.829802E-13  8.829801E-13
 8.829803E-13  8.829803E-13  8.829802E-13  8.829802E-13  8.829802E-13  8.829802E-13  8.829802E-13  8.829802E-13  8.829802E-13  8.829802E-13
 8.829803E-13  8.829803E-13  8.829802E-13  8.829802E-13  8.829802E-13  8.829802E-13  8.829802E-13  8.829802E-13  8.829802E-13  8.829802E-13
 8.829804E-13  8.829803E-13  8.829802E-13  8.829802E-13  8.829802E-13  8.829802E-13  8.829802E-13  8.829802E-13  8.829802E-13  8.829802E-13


SCALARS Liquid_Pressure      float 1
LOOKUP_TABLE default
 8.378508E+06  8.003762E+06  7.825624E+06  7.716193E+06  7.642564E+06  7.590768E+06  7.553199E+06  7.525091E+06  7.503214E+06  7.485274E+06
 8.333339E+06  7.958598E+06  7.780465E+06  7.671036E+06  7.597409E+06  7.545614E+06  7.508046E+06  7.479939E+06  7.458062E+06  7.440123E+06
 8.288176E+06  7.913435E+06  7.735306E+06  7.625880E+06  7.552255E+06  7.500461E+06  7.462894E+06  7.434788E+06  7.412912E+06  7.394973E+06
 8.243019E+06  7.868273E+06  7.690149E+06  7.580726E+06  7.507102E+06  7.455310E+06  7.417744E+06  7.389638E+06  7.367763E+06  7.349824E+06
 8.197868E+06  7.823112E+06  7.644992E+06  7.535572E+06  7.461951E+06  7.410160E+06  7.372594E+06  7.344489E+06  7.322615E+06  7.304676E+06
 8.152724E+06  7.777953E+06  7.599838E+06  7.490420E+06  7.416801E+06  7.365011E+06  7.327446E+06  7.299342E+06  7.277468E+06  7.259530E+06
 8.107585E+06  7.732795E+06  7.554684E+06  7.445270E+06  7.371652E+06  7.319863E+06  7.282300E+06  7.254196E+06  7.232322E+06  7.214385E+06
 8.062440E+06  7.687638E+06  7.509532E+06  7.400120E+06  7.326504E+06  7.274717E+06  7.237154E+06  7.209051E+06  7.187178E+06  7.169241E+06
 8.017289E+06  7.642483E+06  7.464381E+06  7.354972E+06  7.281358E+06  7.229572E+06  7.192010E+06  7.163908E+06  7.142035E+06  7.124099E+06
 7.972132E+06  7.597328E+06  7.419231E+06  7.309825E+06  7.236212E+06  7.184428E+06  7.146867E+06  7.118766E+06  7.096894E+06  7.078958E+06
 7.926970E+06  7.552175E+06  7.374082E+06  7.264679E+06  7.191069E+06  7.139285E+06  7.101726E+06  7.073625E+06  7.051753E+06  7.033818E+06
 7.881802E+06  7.507024E+06  7.328935E+06  7.219534E+06  7.145926E+06  7.094144E+06  7.056585E+06  7.028485E+06  7.006614E+06  6.988679E+06
 7.836627E+06  7.461873E+06  7.283789E+06  7.174391E+06  7.100785E+06  7.049004E+06  7.011446E+06  6.983347E+06  6.961476E+06  6.943542E+06
 7.791447E+06  7.416724E+06  7.238644E+06  7.129249E+06  7.055644E+06  7.003865E+06  6.966308E+06  6.938209E+06  6.916340E+06  6.898406E+06
 7.746261E+06  7.371576E+06  7.193501E+06  7.084108E+06  7.010506E+06  6.958728E+06  6.921172E+06  6.893074E+06  6.871204E+06  6.853271E+06
 7.701081E+06  7.326429E+06  7.148359E+06  7.038969E+06  6.965368E+06  6.913591E+06  6.876036E+06  6.847939E+06  6.826070E+06  6.808137E+06
 7.655907E+06  7.281284E+06  7.103218E+06  6.993831E+06  6.920232E+06  6.868456E+06  6.830902E+06  6.802806E+06  6.780937E+06  6.763005E+06
 7.610739E+06  7.236139E+06  7.058078E+06  6.948694E+06  6.875097E+06  6.823322E+06  6.785769E+06  6.757673E+06  6.735806E+06  6.717874E+06
 7.565577E+06  7.190996E+06  7.012940E+06  6.903558E+06  6.829963E+06  6.778190E+06  6.740638E+06  6.712543E+06  6.690676E+06  6.672744E+06
 7.520421E+06  7.145855E+06  6.967802E+06  6.858424E+06  6.784830E+06  6.733059E+06  6.695507E+06  6.667413E+06  6.645547E+06  6.627615E+06


SCALARS Temperature          float 1
LOOKUP_TABLE default
 1.500514E+02  1.500293E+02  1.500188E+02  1.500123E+02  1.500079E+02  1.500048E+02  1.500026E+02  1.500010E+02  1.499997E+02  1.499986E+02
 1.500514E+02  1.500293E+02  1.500188E+02  1.500123E+02  1.500079E+02  1.500048E+02  1.500026E+02  1.500010E+02  1.499997E+02  1.499986E+02
 1.500514E+02  1.500294E+02  1.500188E+02  1.500123E+02  1.500079E+02  1.500048E+02  1.500026E+02  1.500010E+02  1.499997E+02  1.499986E+02
 1.500514E+02  1.500294E+02  1.500188E+02  1.500123E+02  1.500079E+02  1.500049E+02  1.500026E+02  1.500010E+02  1.499997E+02  1.499986E+02
 1.500514E+02  1.500294E+02  1.500188E+02  1.500123E+02  1.500079E+02  1.500049E+02  1.500026E+02  1.500010E+02  1.499997E+02  1.499986E+02
 1.500513E+02  1.500294E+02  1.500188E+02  1.500123E+02  1.500079E+02  1.500049E+02  1.500026E+02  1.500010E+02  1.499997E+02  1.499986E+02
 1.500511E+02  1.500294E+02  1.500188E+02  1.500123E+02  1.500079E+02  1.500049E+02  1.500026E+02  1.500010E+02  1.499997E+02  1.499986E+02
 1.500511E+02  1.500294E+02  1.500188E+02  1.500123E+02  1.500079E+02  1.500049E+02  1.500026E+02  1.500010E+02  1.499997E+02  1.499986E+02
 1.500511E+02  1.500294E+02  1.500188E+02  1.500123E+02  1.500079E+02  1.500049E+02  1.500026E+02  1.500010E+02  1.499997E+02  1.499986E+02
 1.500512E+02  1.500294E+02  1.500188E+02  1.500123E+02  1.500079E+02  1.500049E+02  1.500026E+02  1.500010E+02  1.499997E+02  1.499986E+02
 1.500512E+02  1.500294E+02  1.500188E+02  1.500123E+02  1.500079E+02  1.500049E+02  1.500026E+02  1.500010E+02  1.499997E+02  1.499986E+02
 1.500512E+02  1.500294E+02  1.500188E+02  1.500123E+02  1.500079E+02  1.500049E+02  1.500026E+02  1.500010E+02  1.499997E+02  1.499986E+02
 1.500512E+02  1.500294E+02  1.500188E+02  1.500123E+02  1.500079E+02  1.500049E+02  1.500026E+02  1.500010E+02  1.499997E+02  1.499986E+02
 1.500513E+02  1.500294E+02  1.500188E+02  1.500123E+02  1.500079E+02  1.500049E+02  1.500026E+02  1.500010E+02  1.499997E+02  1.499986E+02
 1.500516E+02  1.500294E+02  1.500188E+02  1.500123E+02  1.500079E+02  1.500049E+02  1.500026E+02  1.500010E+02  1.499997E+02  1.499986E+02
 1.500516E+02  1.500294E+02  1.500188E+02  1.500123E+02  1.500079E+02  1.500049E+02  1.500026E+02  1.500010E+02  1.499997E+02  1.499986E+02
 1.500516E+02  1.500294E+02  1.500188E+02  1.500123E+02  1.500079E+02  1.500049E+02  1.500026E+02  1.500010E+02  1.499997E+02  1.499986E+02
 1.500516E+02  1.500294E+02  1.500188E+02  1.500123E+02  1.500079E+02  1.500049E+02  1.500026E+02  1.500010E+02  1.499997E+02  1.499986E+02
 1.500516E+02  1.500294E+02  1.500188E+02  1.500123E+02  1.500079E+02  1.500049E+02  1.500026E+02  1.500010E+02  1.499997E+02  1.499986E+02
 1.500516E+02  1.500294E+02  1.500188E+02  1.500123E+02  1.500079E+02  1.500049E+02  1.500026E+02  1.500010E+02  1.499997E+02  1.499986E+02


SCALARS pH                   float 1
LOOKUP_TABLE default
 6.144543E+00  6.144510E+00  6.144495E+00  6.144485E+00  6.144478E+00  6.144474E+00  6.144471E+00  6.144468E+00  6.144466E+00  6.144465E+00
 6.144543E+00  6.144510E+00  6.144495E+00  6.144485E+00  6.144479E+00  6.144474E+00  6.144471E+00  6.144468E+00  6.144466E+00  6.144465E+00
 6.144543E+00  6.144510E+00  6.144495E+00  6.144485E+00  6.144479E+00  6.144474E+00  6.144471E+00  6.144468E+00  6.144466E+00  6.144465E+00
 6.144543E+00  6.144510E+00  6.144495E+00  6.144485E+00  6.144479E+00  6.144474E+00  6.144471E+00  6.144468E+00  6.144466E+00  6.144465E+00
 6.144543E+00  6.144510E+00  6.144495E+00  6.144485E+00  6.144479E+00  6.144474E+00  6.144471E+00  6.144468E+00  6.144466E+00  6.144465E+00
 6.144543E+00  6.144510E+00  6.144495E+00  6.144485E+00  6.144479E+00  6.144474E+00  6.144471E+00  6.144468E+00  6.144466E+00  6.144465E+00
 6.144553E+00  6.144510E+00  6.144495E+00  6.144485E+00  6.144479E+00  6.144474E+00  6.144471E+00  6.144468E+00  6.144466E+00  6.144465E+00
 6.144553E+00  6.144510E+00  6.144495E+00  6.144485E+00  6.144479E+00  6.144474E+00  6.144471E+00  6.144468E+00  6.144466E+00  6.144465E+00
 6.144553E+00  6.144510E+00  6.144495E+00  6.144485E+00  6.144479E+00  6.144474E+00  6.144471E+00  6.144468E+00  6.144466E+00  6.144465E+00
 6.144553E+00  6.144510E+00  6.144495E+00  6.144485E+00  6.144479E+00  6.144474E+00  6.144471E+00  6.144468E+00  6.144466E+00  6.144465E+00
 6.144553E+00  6.144510E+00  6.144495E+00  6.144485E+00  6.144479E+00  6.144474E+00  6.144471E+00  6.144468E+00  6.144466E+00  6.144465E+00
 6.144553E+00  6.144510E+00  6.144495E+00  6.144485E+00  6.144479E+00  6.144474E+00  6.144471E+00  6.144468E+00  6.144466E+00  6.144465E+00
 6.144553E+00  6.144510E+00  6.144495E+00  6.144485E+00  6.144479E+00  6.144474E+00  6.144471E+00  6.144468E+00  6.144466E+00  6.144465E+00
 6.144553E+00  6.144510E+00  6.144495E+00  6.144485E+00  6.144479E+00  6.144474E+00  6.144471E+00  6.144468E+00  6.144466E+00  6.144465E+00
 6.144543E+00  6.144510E+00  6.144495E+00  6.144485E+00  6.144479E+00  6.144474E+00  6.144471E+00  6.144468E+00  6.144466E+00  6.144465E+00
 6.144543E+00  6.144510E+00  6.144495E+00  6.144485E+00  6.144479E+00  6.144474E+00  6.144471E+00  6.144468E+00  6.144466E+00  6.144465E+00
 6.144543E+00  6.144510E+00  6.144495E+00  6.144485E+00  6.144479E+00  6.144474E+00  6.144471E+00  6.144468E+00  6.144466E+00  6.144465E+00
 6.144543E+00  6.144510E+00  6.144495E+00  6.144485E+00  6.144479E+00  6.144474E+00  6.144471E+00  6.144468E+00  6.144466E+00  6.144465E+00
 6.144543E+00  6.144510E+00  6.144495E+00  6.144485E+00  6.144479E+00  6.144474E+00  6.144471E+00  6.144468E+00  6.144466E+00  6.144465E+00
 6.144543E+00  6.144510E+00  6.144495E+00  6.144485E+00  6.144479E+00  6.144474E+00  6.144471E+00  6.144468E+00  6.144466E+00  6.144465E+00


SCALARS Total_H+             float 1
LOOKUP_TABLE default
-3.032289E-03 -3.033034E-03 -3.033394E-03 -3.033616E-03 -3.033766E-03 -3.033872E-03 -3.033949E-03 -3.034007E-03 -3.034051E-03 -3.034087E-03
-3.032289E-03 -3.033033E-03 -3.033393E-03 -3.033615E-03 -3.033765E-03 -3.033871E-03 -3.033948E-03 -3.034006E-03 -3.034050E-03 -3.034086E-03
-3.032289E-03 -3.033032E-03 -3.033392E-03 -3.033614E-03 -3.033765E-03 -3.033871E-03 -3.033948E-03 -3.034005E-03 -3.034050E-03 -3.034086E-03
-3.032288E-03 -3.033032E-03 -3.033391E-03 -3.033614E-03 -3.033764E-03 -3.033870E-03 -3.033947E-03 -3.034004E-03 -3.034049E-03 -3.034085E-03
-3.032288E-03 -3.033031E-03 -3.033391E-03 -3.033613E-03 -3.033763E-03 -3.033869E-03 -3.033946E-03 -3.034004E-03 -3.034048E-03 -3.034084E-03
-3.032288E-03 -3.033030E-03 -3.033390E-03 -3.033612E-03 -3.033762E-03 -3.033868E-03 -3.033946E-03 -3.034003E-03 -3.034048E-03 -3.034083E-03
-3.032351E-03 -3.033029E-03 -3.033389E-03 -3.033611E-03 -3.033762E-03 -3.033868E-03 -3.033945E-03 -3.034002E-03 -3.034047E-03 -3.034083E-03
-3.032350E-03 -3.033028E-03 -3.033388E-03 -3.033610E-03 -3.033761E-03 -3.033867E-03 -3.033944E-03 -3.034002E-03 -3.034046E-03 -3.034082E-03
-3.032348E-03 -3.033027E-03 -3.033387E-03 -3.033610E-03 -3.033760E-03 -3.033866E-03 -3.033943E-03 -3.034001E-03 -3.034045E-03 -3.034081E-03
-3.032347E-03 -3.033027E-03 -3.033387E-03 -3.033609E-03 -3.033759E-03 -3.033866E-03 -3.033943E-03 -3.034000E-03 -3.034045E-03 -3.034081E-03
-3.032346E-03 -3.033026E-03 -3.033386E-03 -3.033608E-03 -3.033759E-03 -3.033865E-03 -3.033942E-03 -3.034000E-03 -3.034044E-03 -3.034080E-03
-3.032345E-03 -3.033025E-03 -3.033385E-03 -3.033607E-03 -3.033758E-03 -3.033864E-03 -3.033941E-03 -3.033999E-03 -3.034043E-03 -3.034079E-03
-3.032344E-03 -3.033024E-03 -3.033384E-03 -3.033607E-03 -3.033757E-03 -3.033863E-03 -3.033940E-03 -3.033998E-03 -3.034043E-03 -3.034079E-03
-3.032342E-03 -3.033023E-03 -3.033384E-03 -3.033606E-03 -3.033756E-03 -3.033863E-03 -3.033940E-03 -3.033997E-03 -3.034042E-03 -3.034078E-03
-3.032272E-03 -3.033022E-03 -3.033383E-03 -3.033605E-03 -3.033756E-03 -3.033862E-03 -3.033939E-03 -3.033997E-03 -3.034041E-03 -3.034077E-03
-3.032271E-03 -3.033022E-03 -3.033382E-03 -3.033604E-03 -3.033755E-03 -3.033861E-03 -3.033938E-03 -3.033996E-03 -3.034040E-03 -3.034076E-03
-3.032271E-03 -3.033021E-03 -3.033381E-03 -3.033604E-03 -3.033754E-03 -3.033860E-03 -3.033938E-03 -3.033995E-03 -3.034040E-03 -3.034076E-03
-3.032271E-03 -3.033020E-03 -3.033380E-03 -3.033603E-03 -3.033753E-03 -3.033860E-03 -3.033937E-03 -3.033995E-03 -3.034039E-03 -3.034075E-03
-3.032271E-03 -3.033019E-03 -3.033380E-03 -3.033602E-03 -3.033753E-03 -3.033859E-03 -3.033936E-03 -3.033994E-03 -3.034038E-03 -3.034074E-03
-3.032270E-03 -3.033018E-03 -3.033379E-03 -3.033601E-03 -3.033752E-03 -3.033858E-03 -3.033935E-03 -3.033993E-03 -3.034038E-03 -3.034074E-03


SCALARS Total_SiO2(aq)       float 1
LOOKUP_TABLE default
 1.039648E-02  1.039458E-02  1.039367E-02  1.039312E-02  1.039274E-02  1.039248E-02  1.039229E-02  1.039215E-02  1.039203E-02  1.039194E-02
 1.039648E-02  1.039458E-02  1.039367E-02  1.039312E-02  1.039274E-02  1.039248E-02  1.039229E-02  1.039215E-02  1.039203E-02  1.039194E-02
 1.039648E-02  1.039458E-02  1.039367E-02  1.039312E-02  1.039274E-02  1.039248E-02  1.039229E-02  1.039215E-02  1.039203E-02  1.039194E-02
 1.039647E-02  1.039458E-02  1.039367E-02  1.039312E-02  1.039274E-02  1.039248E-02  1.039229E-02  1.039215E-02  1.039203E-02  1.039194E-02
 1.039647E-02  1.039458E-02  1.039367E-02  1.039312E-02  1.039274E-02  1.039248E-02  1.039229E-02  1.039215E-02  1.039203E-02  1.039194E-02
 1.039647E-02  1.039458E-02  1.039367E-02  1.039312E-02  1.039274E-02  1.039248E-02  1.039229E-02  1.039215E-02  1.039203E-02  1.039194E-02
 1.039668E-02  1.039458E-02  1.039367E-02  1.039312E-02  1.039274E-02  1.039248E-02  1.039229E-02  1.039215E-02  1.039203E-02  1.039194E-02
 1.039668E-02  1.039458E-02  1.039367E-02  1.039312E-02  1.039274E-02  1.039248E-02  1.039229E-02  1.039215E-02  1.039203E-02  1.039194E-02
 1.039668E-02  1.039458E-02  1.039367E-02  1.039312E-02  1.039274E-02  1.039248E-02  1.039229E-02  1.039215E-02  1.039203E-02  1.039194E-02
 1.039669E-02  1.039459E-02  1.039367E-02  1.039312E-02  1.039274E-02  1.039248E-02  1.039229E-02  1.039215E-02  1.039203E-02  1.039194E-02
 1.039669E-02  1.039459E-02  1.039367E-02  1.039312E-02  1.039274E-02  1.039248E-02  1.039229E-02  1.039215E-02  1.039203E-02  1.039194E-02
 1.039669E-02  1.039459E-02  1.039368E-02  1.039312E-02  1.039274E-02  1.039248E-02  1.039229E-02  1.039215E-02  1.039203E-02  1.039194E-02
 1.039669E-02  1.039459E-02  1.039368E-02  1.039312E-02  1.039274E-02  1.039248E-02  1.039229E-02  1.039215E-02  1.039204E-02  1.039194E-02
 1.039670E-02  1.039459E-02  1.039368E-02  1.039312E-02  1.039274E-02  1.039248E-02  1.039229E-02  1.039215E-02  1.039204E-02  1.039194E-02
 1.039650E-02  1.039459E-02  1.039368E-02  1.039312E-02  1.039274E-02  1.039248E-02  1.039229E-02  1.039215E-02  1.039204E-02  1.039194E-02
 1.039650E-02  1.039459E-02  1.039368E-02  1.039312E-02  1.039274E-02  1.039248E-02  1.039229E-02  1.039215E-02  1.039204E-02  1.039194E-02
 1.039650E-02  1.039459E-02  1.039368E-02  1.039312E-02  1.039274E-02  1.039248E-02  1.039229E-02  1.039215E-02  1.039204E-02  1.039194E-02
 1.039649E-02  1.039459E-02  1.039368E-02  1.039312E-02  1.039274E-02  1.039248E-02  1.039229E-02  1.039215E-02  1.039204E-02  1.039194E-02
 1.039649E-02  1.039459E-02  1.039368E-02  1.039312E-02  1.039274E-02  1.039248E-02  1.039229E-02  1.039215E-02  1.039204E-02  1.039194E-02