# vtk DataFile Version 2.0
PFLOTRAN output
ASCII
DATASET UNSTRUCTURED_GRID
POINTS         4242 float
 0.000000E+00  0.000000E+00  0.000000E+00
 2.000000E+02  0.000000E+00  0.000000E+00
 4.000000E+02  0.000000E+00  0.000000E+00
 6.000000E+02  0.000000E+00  0.000000E+00
 8.000000E+02  0.000000E+00  0.000000E+00
 1.000000E+03  0.000000E+00  0.000000E+00
 1.200000E+03  0.000000E+00  0.000000E+00
 1.400000E+03  0.000000E+00  0.000000E+00
 1.600000E+03  0.000000E+00  0.000000E+00
 1.800000E+03  0.000000E+00  0.000000E+00
 2.000000E+03  0.000000E+00  0.000000E+00
 2.200000E+03  0.000000E+00  0.000000E+00
 2.400000E+03  0.000000E+00  0.000000E+00
 2.600000E+03  0.000000E+00  0.000000E+00
 2.800000E+03  0.000000E+00  0.000000E+00
 3.000000E+03  0.000000E+00  0.000000E+00
 3.200000E+03  0.000000E+00  0.000000E+00
 3.400000E+03  0.000000E+00  0.000000E+00
 3.600000E+03  0.000000E+00  0.000000E+00
 3.800000E+03  0.000000E+00  0.000000E+00
 4.000000E+03  0.000000E+00  0.000000E+00
 4.200000E+03  0.000000E+00  0.000000E+00
 4.400000E+03  0.000000E+00  0.000000E+00
 4.600000E+03  0.000000E+00  0.000000E+00
 4.800000E+03  0.000000E+00  0.000000E+00
 5.000000E+03  0.000000E+00  0.000000E+00
 5.200000E+03  0.000000E+00  0.000000E+00
 5.400000E+03  0.000000E+00  0.000000E+00
 5.600000E+03  0.000000E+00  0.000000E+00
 5.800000E+03  0.000000E+00  0.000000E+00
 6.000000E+03  0.000000E+00  0.000000E+00
 6.200000E+03  0.000000E+00  0.000000E+00
 6.400000E+03  0.000000E+00  0.000000E+00
 6.600000E+03  0.000000E+00  0.000000E+00
 6.800000E+03  0.000000E+00  0.000000E+00
 7.000000E+03  0.000000E+00  0.000000E+00
 7.200000E+03  0.000000E+00  0.000000E+00
 7.400000E+03  0.000000E+00  0.000000E+00
 7.600000E+03  0.000000E+00  0.000000E+00
 7.800000E+03  0.000000E+00  0.000000E+00
 8.000000E+03  0.000000E+00  0.000000E+00
 8.200000E+03  0.000000E+00  0.000000E+00
 8.400000E+03  0.000000E+00  0.000000E+00
 8.600000E+03  0.000000E+00  0.000000E+00
 8.800000E+03  0.000000E+00  0.000000E+00
 9.000000E+03  0.000000E+00  0.000000E+00
 9.200000E+03  0.000000E+00  0.000000E+00
 9.400000E+03  0.000000E+00  0.000000E+00
 9.600000E+03  0.000000E+00  0.000000E+00
 9.800000E+03  0.000000E+00  0.000000E+00
 1.000000E+04  0.000000E+00  0.000000E+00
 1.020000E+04  0.000000E+00  0.000000E+00
 1.040000E+04  0.000000E+00  0.000000E+00
 1.060000E+04  0.000000E+00  0.000000E+00
 1.080000E+04  0.000000E+00  0.000000E+00
 1.100000E+04  0.000000E+00  0.000000E+00
 1.120000E+04  0.000000E+00  0.000000E+00
 1.140000E+04  0.000000E+00  0.000000E+00
 1.160000E+04  0.000000E+00  0.000000E+00
 1.180000E+04  0.000000E+00  0.000000E+00
 1.200000E+04  0.000000E+00  0.000000E+00
 1.220000E+04  0.000000E+00  0.000000E+00
 1.240000E+04  0.000000E+00  0.000000E+00
 1.260000E+04  0.000000E+00  0.000000E+00
 1.280000E+04  0.000000E+00  0.000000E+00
 1.300000E+04  0.000000E+00  0.000000E+00
 1.320000E+04  0.000000E+00  0.000000E+00
 1.340000E+04  0.000000E+00  0.000000E+00
 1.360000E+04  0.000000E+00  0.000000E+00
 1.380000E+04  0.000000E+00  0.000000E+00
 1.400000E+04  0.000000E+00  0.000000E+00
 1.420000E+04  0.000000E+00  0.000000E+00
 1.440000E+04  0.000000E+00  0.000000E+00
 1.460000E+04  0.000000E+00  0.000000E+00
 1.480000E+04  0.000000E+00  0.000000E+00
 1.500000E+04  0.000000E+00  0.000000E+00
 1.520000E+04  0.000000E+00  0.000000E+00
 1.540000E+04  0.000000E+00  0.000000E+00
 1.560000E+04  0.000000E+00  0.000000E+00
 1.580000E+04  0.000000E+00  0.000000E+00
 1.600000E+04  0.000000E+00  0.000000E+00
 1.620000E+04  0.000000E+00  0.000000E+00
 1.640000E+04  0.000000E+00  0.000000E+00
 1.660000E+04  0.000000E+00  0.000000E+00
 1.680000E+04  0.000000E+00  0.000000E+00
 1.700000E+04  0.000000E+00  0.000000E+00
 1.720000E+04  0.000000E+00  0.000000E+00
 1.740000E+04  0.000000E+00  0.000000E+00
 1.760000E+04  0.000000E+00  0.000000E+00
 1.780000E+04  0.000000E+00  0.000000E+00
 1.800000E+04  0.000000E+00  0.000000E+00
 1.820000E+04  0.000000E+00  0.000000E+00
 1.840000E+04  0.000000E+00  0.000000E+00
 1.860000E+04  0.000000E+00  0.000000E+00
 1.880000E+04  0.000000E+00  0.000000E+00
 1.900000E+04  0.000000E+00  0.000000E+00
 1.920000E+04  0.000000E+00  0.000000E+00
 1.940000E+04  0.000000E+00  0.000000E+00
 1.960000E+04  0.000000E+00  0.000000E+00
 1.980000E+04  0.000000E+00  0.000000E+00
 2.000000E+04  0.000000E+00  0.000000E+00
 0.000000E+00  1.000000E+00  0.000000E+00
 2.000000E+02  1.000000E+00  0.000000E+00
 4.000000E+02  1.000000E+00  0.000000E+00
 6.000000E+02  1.000000E+00  0.000000E+00
 8.000000E+02  1.000000E+00  0.000000E+00
 1.000000E+03  1.000000E+00  0.000000E+00
 1.200000E+03  1.000000E+00  0.000000E+00
 1.400000E+03  1.000000E+00  0.000000E+00
 1.600000E+03  1.000000E+00  0.000000E+00
 1.800000E+03  1.000000E+00  0.000000E+00
 2.000000E+03  1.000000E+00  0.000000E+00
 2.200000E+03  1.000000E+00  0.000000E+00
 2.400000E+03  1.000000E+00  0.000000E+00
 2.600000E+03  1.000000E+00  0.000000E+00
 2.800000E+03  1.000000E+00  0.000000E+00
 3.000000E+03  1.000000E+00  0.000000E+00
 3.200000E+03  1.000000E+00  0.000000E+00
 3.400000E+03  1.000000E+00  0.000000E+00
 3.600000E+03  1.000000E+00  0.000000E+00
 3.800000E+03  1.000000E+00  0.000000E+00
 4.000000E+03  1.000000E+00  0.000000E+00
 4.200000E+03  1.000000E+00  0.000000E+00
 4.400000E+03  1.000000E+00  0.000000E+00
 4.600000E+03  1.000000E+00  0.000000E+00
 4.800000E+03  1.000000E+00  0.000000E+00
 5.000000E+03  1.000000E+00  0.000000E+00
 5.200000E+03  1.000000E+00  0.000000E+00
 5.400000E+03  1.000000E+00  0.000000E+00
 5.600000E+03  1.000000E+00  0.000000E+00
 5.800000E+03  1.000000E+00  0.000000E+00
 6.000000E+03  1.000000E+00  0.000000E+00
 6.200000E+03  1.000000E+00  0.000000E+00
 6.400000E+03  1.000000E+00  0.000000E+00
 6.600000E+03  1.000000E+00  0.000000E+00
 6.800000E+03  1.000000E+00  0.000000E+00
 7.000000E+03  1.000000E+00  0.000000E+00
 7.200000E+03  1.000000E+00  0.000000E+00
 7.400000E+03  1.000000E+00  0.000000E+00
 7.600000E+03  1.000000E+00  0.000000E+00
 7.800000E+03  1.000000E+00  0.000000E+00
 8.000000E+03  1.000000E+00  0.000000E+00
 8.200000E+03  1.000000E+00  0.000000E+00
 8.400000E+03  1.000000E+00  0.000000E+00
 8.600000E+03  1.000000E+00  0.000000E+00
 8.800000E+03  1.000000E+00  0.000000E+00
 9.000000E+03  1.000000E+00  0.000000E+00
 9.200000E+03  1.000000E+00  0.000000E+00
 9.400000E+03  1.000000E+00  0.000000E+00
 9.600000E+03  1.000000E+00  0.000000E+00
 9.800000E+03  1.000000E+00  0.000000E+00
 1.000000E+04  1.000000E+00  0.000000E+00
 1.020000E+04  1.000000E+00  0.000000E+00
 1.040000E+04  1.000000E+00  0.000000E+00
 1.060000E+04  1.000000E+00  0.000000E+00
 1.080000E+04  1.000000E+00  0.000000E+00
 1.100000E+04  1.000000E+00  0.000000E+00
 1.120000E+04  1.000000E+00  0.000000E+00
 1.140000E+04  1.000000E+00  0.000000E+00
 1.160000E+04  1.000000E+00  0.000000E+00
 1.180000E+04  1.000000E+00  0.000000E+00
 1.200000E+04  1.000000E+00  0.000000E+00
 1.220000E+04  1.000000E+00  0.000000E+00
 1.240000E+04  1.000000E+00  0.000000E+00
 1.260000E+04  1.000000E+00  0.000000E+00
 1.280000E+04  1.000000E+00  0.000000E+00
 1.300000E+04  1.000000E+00  0.000000E+00
 1.320000E+04  1.000000E+00  0.000000E+00
 1.340000E+04  1.000000E+00  0.000000E+00
 1.360000E+04  1.000000E+00  0.000000E+00
 1.380000E+04  1.000000E+00  0.000000E+00
 1.400000E+04  1.000000E+00  0.000000E+00
 1.420000E+04  1.000000E+00  0.000000E+00
 1.440000E+04  1.000000E+00  0.000000E+00
 1.460000E+04  1.000000E+00  0.000000E+00
 1.480000E+04  1.000000E+00  0.000000E+00
 1.500000E+04  1.000000E+00  0.000000E+00
 1.520000E+04  1.000000E+00  0.000000E+00
 1.540000E+04  1.000000E+00  0.000000E+00
 1.560000E+04  1.000000E+00  0.000000E+00
 1.580000E+04  1.000000E+00  0.000000E+00
 1.600000E+04  1.000000E+00  0.000000E+00
 1.620000E+04  1.000000E+00  0.000000E+00
 1.640000E+04  1.000000E+00  0.000000E+00
 1.660000E+04  1.000000E+00  0.000000E+00
 1.680000E+04  1.000000E+00  0.000000E+00
 1.700000E+04  1.000000E+00  0.000000E+00
 1.720000E+04  1.000000E+00  0.000000E+00
 1.740000E+04  1.000000E+00  0.000000E+00
 1.760000E+04  1.000000E+00  0.000000E+00
 1.780000E+04  1.000000E+00  0.000000E+00
 1.800000E+04  1.000000E+00  0.000000E+00
 1.820000E+04  1.000000E+00  0.000000E+00
 1.840000E+04  1.000000E+00  0.000000E+00
 1.860000E+04  1.000000E+00  0.000000E+00
 1.880000E+04  1.000000E+00  0.000000E+00
 1.900000E+04  1.000000E+00  0.000000E+00
 1.920000E+04  1.000000E+00  0.000000E+00
 1.940000E+04  1.000000E+00  0.000000E+00
 1.960000E+04  1.000000E+00  0.000000E+00
 1.980000E+04  1.000000E+00  0.000000E+00
 2.000000E+04  1.000000E+00  0.000000E+00
 0.000000E+00  0.000000E+00  1.500000E+01
 2.000000E+02  0.000000E+00  1.500000E+01
 4.000000E+02  0.000000E+00  1.500000E+01
 6.000000E+02  0.000000E+00  1.500000E+01
 8.000000E+02  0.000000E+00  1.500000E+01
 1.000000E+03  0.000000E+00  1.500000E+01
 1.200000E+03  0.000000E+00  1.500000E+01
 1.400000E+03  0.000000E+00  1.500000E+01
 1.600000E+03  0.000000E+00  1.500000E+01
 1.800000E+03  0.000000E+00  1.500000E+01
 2.000000E+03  0.000000E+00  1.500000E+01
 2.200000E+03  0.000000E+00  1.500000E+01
 2.400000E+03  0.000000E+00  1.500000E+01
 2.600000E+03  0.000000E+00  1.500000E+01
 2.800000E+03  0.000000E+00  1.500000E+01
 3.000000E+03  0.000000E+00  1.500000E+01
 3.200000E+03  0.000000E+00  1.500000E+01
 3.400000E+03  0.000000E+00  1.500000E+01
 3.600000E+03  0.000000E+00  1.500000E+01
 3.800000E+03  0.000000E+00  1.500000E+01
 4.000000E+03  0.000000E+00  1.500000E+01
 4.200000E+03  0.000000E+00  1.500000E+01
 4.400000E+03  0.000000E+00  1.500000E+01
 4.600000E+03  0.000000E+00  1.500000E+01
 4.800000E+03  0.000000E+00  1.500000E+01
 5.000000E+03  0.000000E+00  1.500000E+01
 5.200000E+03  0.000000E+00  1.500000E+01
 5.400000E+03  0.000000E+00  1.500000E+01
 5.600000E+03  0.000000E+00  1.500000E+01
 5.800000E+03  0.000000E+00  1.500000E+01
 6.000000E+03  0.000000E+00  1.500000E+01
 6.200000E+03  0.000000E+00  1.500000E+01
 6.400000E+03  0.000000E+00  1.500000E+01
[...]
CELL_DATA     2000
SCALARS Vlx                  float 1
LOOKUP_TABLE default
 3.761760E+01  3.670450E+01  3.213014E+01  2.600759E+01  2.108201E+01  1.748277E+01  1.485711E+01  1.289379E+01  1.138179E+01  1.018511E+01
 9.215532E+00  8.414332E+00  7.741253E+00  7.167867E+00  6.673560E+00  6.243032E+00  5.864687E+00  5.529580E+00  5.230699E+00  4.962472E+00
 4.720413E+00  4.500871E+00  4.300843E+00  4.117838E+00  3.949772E+00  3.794888E+00  3.651692E+00  3.518911E+00  3.395447E+00  3.280353E+00
 3.172807E+00  3.072088E+00  2.977568E+00  2.888690E+00  2.804965E+00  2.725957E+00  2.651277E+00  2.580581E+00  2.513557E+00  2.449926E+00
 2.389438E+00  2.331865E+00  2.277001E+00  2.224659E+00  2.174670E+00  2.126878E+00  2.081142E+00  2.037331E+00  1.995327E+00  1.955020E+00
 1.916310E+00  1.879102E+00  1.843312E+00  1.808860E+00  1.775673E+00  1.743681E+00  1.712822E+00  1.683036E+00  1.654268E+00  1.626467E+00
 1.599585E+00  1.573578E+00  1.548403E+00  1.524020E+00  1.500394E+00  1.477489E+00  1.455273E+00  1.433715E+00  1.412787E+00  1.392461E+00
 1.372711E+00  1.353514E+00  1.334847E+00  1.316687E+00  1.299015E+00  1.281811E+00  1.265057E+00  1.248735E+00  1.232829E+00  1.217324E+00
 1.202203E+00  1.187454E+00  1.173062E+00  1.159015E+00  1.145300E+00  1.131906E+00  1.118822E+00  1.106037E+00  1.093540E+00  1.081323E+00
 1.069377E+00  1.057691E+00  1.046259E+00  1.035071E+00  1.024122E+00  1.013404E+00  1.002913E+00  9.926465E-01  9.826081E-01  9.728351E-01
 4.053588E+01  3.831445E+01  3.266957E+01  2.615975E+01  2.112386E+01  1.749491E+01  1.486122E+01  1.289565E+01  1.138296E+01  1.018603E+01
 9.216323E+00  8.415044E+00  7.741904E+00  7.168469E+00  6.674120E+00  6.243556E+00  5.865178E+00  5.530043E+00  5.231138E+00  4.962888E+00
 4.720809E+00  4.501248E+00  4.301203E+00  4.118183E+00  3.950103E+00  3.795205E+00  3.651998E+00  3.519205E+00  3.395731E+00  3.280628E+00
 3.173072E+00  3.072346E+00  2.977817E+00  2.888932E+00  2.805200E+00  2.726185E+00  2.651499E+00  2.580797E+00  2.513767E+00  2.450131E+00
 2.389638E+00  2.332060E+00  2.277191E+00  2.224845E+00  2.174852E+00  2.127056E+00  2.081316E+00  2.037502E+00  1.995494E+00  1.955184E+00
 1.916470E+00  1.879260E+00  1.843467E+00  1.809012E+00  1.775821E+00  1.743827E+00  1.712965E+00  1.683176E+00  1.654406E+00  1.626603E+00
 1.599719E+00  1.573710E+00  1.548532E+00  1.524148E+00  1.500520E+00  1.477613E+00  1.455395E+00  1.433835E+00  1.412905E+00  1.392577E+00
 1.372826E+00  1.353627E+00  1.334958E+00  1.316797E+00  1.299124E+00  1.281918E+00  1.265163E+00  1.248840E+00  1.232933E+00  1.217425E+00
 1.202304E+00  1.187553E+00  1.173160E+00  1.159111E+00  1.145396E+00  1.132001E+00  1.118915E+00  1.106129E+00  1.093632E+00  1.081414E+00
 1.069466E+00  1.057780E+00  1.046346E+00  1.035158E+00  1.024208E+00  1.013489E+00  1.002997E+00  9.927284E-01  9.826867E-01  9.728876E-01
 4.674405E+01  4.164943E+01  3.373163E+01  2.645143E+01  2.120230E+01  1.751671E+01  1.486791E+01  1.289820E+01  1.138432E+01  1.018700E+01
 9.217129E+00  8.415759E+00  7.742557E+00  7.169071E+00  6.674680E+00  6.244079E+00  5.865670E+00  5.530506E+00  5.231576E+00  4.963304E+00
 4.721204E+00  4.501625E+00  4.301563E+00  4.118528E+00  3.950434E+00  3.795523E+00  3.652303E+00  3.519500E+00  3.396015E+00  3.280902E+00
 3.173338E+00  3.072603E+00  2.978066E+00  2.889174E+00  2.805435E+00  2.726413E+00  2.651721E+00  2.581013E+00  2.513977E+00  2.450336E+00
 2.389838E+00  2.332255E+00  2.277382E+00  2.225031E+00  2.175034E+00  2.127234E+00  2.081490E+00  2.037672E+00  1.995661E+00  1.955347E+00
 1.916630E+00  1.879417E+00  1.843621E+00  1.809163E+00  1.775970E+00  1.743973E+00  1.713108E+00  1.683317E+00  1.654545E+00  1.626739E+00
 1.599853E+00  1.573841E+00  1.548662E+00  1.524275E+00  1.500645E+00  1.477736E+00  1.455517E+00  1.433955E+00  1.413023E+00  1.392694E+00
 1.372941E+00  1.353741E+00  1.335070E+00  1.316907E+00  1.299232E+00  1.282026E+00  1.265269E+00  1.248944E+00  1.233036E+00  1.217527E+00
 1.202404E+00  1.187652E+00  1.173258E+00  1.159208E+00  1.145491E+00  1.132095E+00  1.119009E+00  1.106222E+00  1.093723E+00  1.081504E+00
 1.069556E+00  1.057868E+00  1.046434E+00  1.035244E+00  1.024293E+00  1.013573E+00  1.003080E+00  9.928093E-01  9.827630E-01  9.729444E-01
 5.703475E+01  4.694805E+01  3.527971E+01  2.686091E+01  2.131049E+01  1.754625E+01  1.487665E+01  1.290131E+01  1.138582E+01  1.018800E+01
 9.217945E+00  8.416478E+00  7.743210E+00  7.169673E+00  6.675240E+00  6.244602E+00  5.866161E+00  5.530970E+00  5.232014E+00  4.963719E+00
 4.721599E+00  4.502002E+00  4.301923E+00  4.118872E+00  3.950764E+00  3.795840E+00  3.652609E+00  3.519794E+00  3.396299E+00  3.281177E+00
 3.173603E+00  3.072860E+00  2.978315E+00  2.889416E+00  2.805669E+00  2.726641E+00  2.651943E+00  2.581228E+00  2.514188E+00  2.450541E+00
 2.390038E+00  2.332450E+00  2.277572E+00  2.225217E+00  2.175216E+00  2.127412E+00  2.081664E+00  2.037842E+00  1.995828E+00  1.955511E+00
 1.916791E+00  1.879574E+00  1.843775E+00  1.809314E+00  1.776118E+00  1.744118E+00  1.713251E+00  1.683458E+00  1.654683E+00  1.626875E+00
 1.599987E+00  1.573973E+00  1.548791E+00  1.524403E+00  1.500770E+00  1.477860E+00  1.455638E+00  1.434075E+00  1.413141E+00  1.392810E+00
 1.373056E+00  1.353854E+00  1.335182E+00  1.317018E+00  1.299341E+00  1.282133E+00  1.265374E+00  1.249049E+00  1.233139E+00  1.217629E+00
 1.202505E+00  1.187752E+00  1.173356E+00  1.159305E+00  1.145587E+00  1.132190E+00  1.119102E+00  1.106314E+00  1.093815E+00  1.081595E+00
 1.069645E+00  1.057956E+00  1.046521E+00  1.035331E+00  1.024378E+00  1.013657E+00  1.003162E+00  9.928893E-01  9.828379E-01  9.730044E-01
 7.274422E+01  5.459136E+01  3.724201E+01  2.735511E+01  2.143864E+01  1.758085E+01  1.488672E+01  1.290477E+01  1.138743E+01  1.018904E+01
 9.218769E+00  8.417198E+00  7.743863E+00  7.170275E+00  6.675800E+00  6.245125E+00  5.866653E+00  5.531433E+00  5.232452E+00  4.964135E+00
 4.721994E+00  4.502378E+00  4.302283E+00  4.119217E+00  3.951094E+00  3.796158E+00  3.652914E+00  3.520088E+00  3.396583E+00  3.281451E+00
 3.173869E+00  3.073116E+00  2.978564E+00  2.889657E+00  2.805904E+00  2.726869E+00  2.652164E+00  2.581444E+00  2.514398E+00  2.450746E+00
 2.390237E+00  2.332645E+00  2.277762E+00  2.225403E+00  2.175398E+00  2.127590E+00  2.081838E+00  2.038013E+00  1.995995E+00  1.955674E+00
 1.916951E+00  1.879731E+00  1.843929E+00  1.809465E+00  1.776267E+00  1.744264E+00  1.713394E+00  1.683598E+00  1.654821E+00  1.627011E+00
 1.600120E+00  1.574104E+00  1.548921E+00  1.524530E+00  1.500896E+00  1.477983E+00  1.455760E+00  1.434195E+00  1.413259E+00  1.392927E+00
 1.373170E+00  1.353967E+00  1.335293E+00  1.317128E+00  1.299450E+00  1.282240E+00  1.265480E+00  1.249153E+00  1.233242E+00  1.217731E+00
 1.202605E+00  1.187851E+00  1.173454E+00  1.159402E+00  1.145683E+00  1.132284E+00  1.119196E+00  1.106406E+00  1.093906E+00  1.081685E+00
 1.069734E+00  1.058045E+00  1.046608E+00  1.035417E+00  1.024463E+00  1.013741E+00  1.003244E+00  9.929685E-01  9.829118E-01  9.730669E-01
 9.595725E+01  6.513226E+01  3.948756E+01  2.788970E+01  2.157474E+01  1.761731E+01  1.489727E+01  1.290836E+01  1.138907E+01  1.019008E+01
 9.219595E+00  8.417919E+00  7.744516E+00  7.170877E+00  6.676359E+00  6.245648E+00  5.867144E+00  5.531895E+00  5.232889E+00  4.964550E+00
 4.722389E+00  4.502755E+00  4.302643E+00  4.119561E+00  3.951425E+00  3.796475E+00  3.653220E+00  3.520383E+00  3.396867E+00  3.281725E+00
 3.174134E+00  3.073373E+00  2.978813E+00  2.889898E+00  2.806138E+00  2.727097E+00  2.652386E+00  2.581660E+00  2.514608E+00  2.450951E+00
 2.390437E+00  2.332840E+00  2.277953E+00  2.225589E+00  2.175579E+00  2.127767E+00  2.082012E+00  2.038183E+00  1.996161E+00  1.955838E+00
 1.917111E+00  1.879888E+00  1.844083E+00  1.809617E+00  1.776415E+00  1.744410E+00  1.713538E+00  1.683739E+00  1.654959E+00  1.627147E+00
 1.600254E+00  1.574236E+00  1.549050E+00  1.524657E+00  1.501021E+00  1.478107E+00  1.455881E+00  1.434315E+00  1.413377E+00  1.393043E+00
 1.373285E+00  1.354080E+00  1.335405E+00  1.317238E+00  1.299558E+00  1.282347E+00  1.265586E+00  1.249257E+00  1.233345E+00  1.217832E+00
 1.202706E+00  1.187950E+00  1.173552E+00  1.159499E+00  1.145778E+00  1.132379E+00  1.119289E+00  1.106499E+00  1.093997E+00  1.081775E+00
 1.069823E+00  1.058133E+00  1.046695E+00  1.035503E+00  1.024548E+00  1.013824E+00  1.003326E+00  9.930471E-01  9.829852E-01  9.731311E-01
 1.295629E+02  7.924780E+01  4.178769E+01  2.841100E+01  2.170555E+01  1.765220E+01  1.490738E+01  1.291183E+01  1.139068E+01  1.019112E+01
 9.220419E+00  8.418639E+00  7.745170E+00  7.171479E+00  6.676919E+00  6.246171E+00  5.867635E+00  5.532358E+00  5.233327E+00  4.964965E+00
 4.722784E+00  4.503131E+00  4.303002E+00  4.119905E+00  3.951755E+00  3.796792E+00  3.653525E+00  3.520677E+00  3.397151E+00  3.281999E+00
 3.174399E+00  3.073630E+00  2.979062E+00  2.890140E+00  2.806372E+00  2.727324E+00  2.652607E+00  2.581875E+00  2.514818E+00  2.451155E+00
 2.390637E+00  2.333034E+00  2.278143E+00  2.225775E+00  2.175761E+00  2.127945E+00  2.082186E+00  2.038353E+00  1.996328E+00  1.956001E+00
 1.917271E+00  1.880045E+00  1.844237E+00  1.809768E+00  1.776563E+00  1.744555E+00  1.713681E+00  1.683880E+00  1.655098E+00  1.627283E+00
 1.600388E+00  1.574367E+00  1.549179E+00  1.524785E+00  1.501146E+00  1.478230E+00  1.456003E+00  1.434434E+00  1.413495E+00  1.393159E+00
 1.373400E+00  1.354193E+00  1.335516E+00  1.317347E+00  1.299667E+00  1.282454E+00  1.265691E+00  1.249362E+00  1.233448E+00  1.217934E+00
 1.202806E+00  1.188049E+00  1.173650E+00  1.159596E+00  1.145874E+00  1.132473E+00  1.119383E+00  1.106591E+00  1.094089E+00  1.081866E+00
 1.069913E+00  1.058221E+00  1.046783E+00  1.035589E+00  1.024633E+00  1.013908E+00  1.003407E+00  9.931253E-01  9.830582E-01  9.731967E-01
 1.516918E+02  8.911530E+01  4.375986E+01  2.886128E+01  2.181797E+01  1.768222E+01  1.491619E+01  1.291495E+01  1.139219E+01  1.019213E+01
 9.221235E+00  8.419357E+00  7.745822E+00  7.172081E+00  6.677478E+00  6.246694E+00  5.868125E+00  5.532821E+00  5.233764E+00  4.965380E+00
 4.723179E+00  4.503507E+00  4.303362E+00  4.120250E+00  3.952085E+00  3.797109E+00  3.653830E+00  3.520971E+00  3.397434E+00  3.282273E+00
 3.174664E+00  3.073887E+00  2.979311E+00  2.890381E+00  2.806607E+00  2.727552E+00  2.652829E+00  2.582091E+00  2.515028E+00  2.451360E+00
 2.390836E+00  2.333229E+00  2.278333E+00  2.225961E+00  2.175942E+00  2.128123E+00  2.082359E+00  2.038523E+00  1.996495E+00  1.956164E+00
 1.917431E+00  1.880202E+00  1.844391E+00  1.809919E+00  1.776711E+00  1.744701E+00  1.713824E+00  1.684020E+00  1.655236E+00  1.627419E+00
 1.600521E+00  1.574498E+00  1.549308E+00  1.524912E+00  1.501272E+00  1.478353E+00  1.456124E+00  1.434554E+00  1.413613E+00  1.393275E+00
 1.373514E+00  1.354306E+00  1.335628E+00  1.317457E+00  1.299775E+00  1.282561E+00  1.265797E+00  1.249466E+00  1.233551E+00  1.218036E+00
 1.202906E+00  1.188148E+00  1.173748E+00  1.159692E+00  1.145970E+00  1.132568E+00  1.119476E+00  1.106683E+00  1.094180E+00  1.081956E+00
 1.070002E+00  1.058309E+00  1.046870E+00  1.035675E+00  1.024718E+00  1.013991E+00  1.003488E+00  9.932031E-01  9.831310E-01  9.732632E-01
 1.649738E+02  9.532127E+01  4.517703E+01  2.919146E+01  2.190062E+01  1.770451E+01  1.492295E+01  1.291752E+01  1.139355E+01  1.019309E+01
 9.222040E+00  8.420071E+00  7.746473E+00  7.172682E+00  6.678036E+00  6.247216E+00  5.868616E+00  5.533283E+00  5.234202E+00  4.965795E+00
 4.723573E+00  4.503883E+00  4.303721E+00  4.120594E+00  3.952415E+00  3.797426E+00  3.654135E+00  3.521264E+00  3.397718E+00  3.282547E+00
 3.174929E+00  3.074143E+00  2.979559E+00  2.890622E+00  2.806841E+00  2.727780E+00  2.653050E+00  2.582306E+00  2.515237E+00  2.451564E+00
 2.391036E+00  2.333424E+00  2.278523E+00  2.226147E+00  2.176124E+00  2.128300E+00  2.082533E+00  2.038693E+00  1.996661E+00  1.956327E+00
 1.917591E+00  1.880359E+00  1.844545E+00  1.810070E+00  1.776860E+00  1.744846E+00  1.713966E+00  1.684161E+00  1.655374E+00  1.627554E+00
 1.600655E+00  1.574630E+00  1.549438E+00  1.525039E+00  1.501397E+00  1.478477E+00  1.456246E+00  1.434674E+00  1.413731E+00  1.393392E+00
 1.373629E+00  1.354419E+00  1.335739E+00  1.317567E+00  1.299883E+00  1.282668E+00  1.265903E+00  1.249570E+00  1.233653E+00  1.218137E+00
 1.203007E+00  1.188247E+00  1.173846E+00  1.159789E+00  1.146065E+00  1.132662E+00  1.119569E+00  1.106776E+00  1.094271E+00  1.082046E+00
 1.070091E+00  1.058397E+00  1.046957E+00  1.035761E+00  1.024802E+00  1.014074E+00  1.003569E+00  9.932807E-01  9.832038E-01  9.733303E-01
 1.712034E+02  9.831876E+01  4.591510E+01  2.936690E+01  2.194517E+01  1.771699E+01  1.492711E+01  1.291939E+01  1.139473E+01  1.019401E+01
 9.222831E+00  8.420782E+00  7.747123E+00  7.173282E+00  6.678595E+00  6.247738E+00  5.869106E+00  5.533745E+00  5.234639E+00  4.966209E+00
 4.723967E+00  4.504259E+00  4.304080E+00  4.120937E+00  3.952745E+00  3.797743E+00  3.654440E+00  3.521558E+00  3.398001E+00  3.282821E+00
 3.175194E+00  3.074399E+00  2.979808E+00  2.890863E+00  2.807075E+00  2.728007E+00  2.653271E+00  2.582522E+00  2.515447E+00  2.451769E+00
 2.391235E+00  2.333618E+00  2.278713E+00  2.226332E+00  2.176305E+00  2.128478E+00  2.082707E+00  2.038863E+00  1.996828E+00  1.956490E+00
 1.917751E+00  1.880515E+00  1.844698E+00  1.810220E+00  1.777008E+00  1.744992E+00  1.714109E+00  1.684301E+00  1.655512E+00  1.627690E+00
 1.600788E+00  1.574761E+00  1.549567E+00  1.525166E+00  1.501522E+00  1.478600E+00  1.456367E+00  1.434793E+00  1.413849E+00  1.393508E+00
 1.373743E+00  1.354532E+00  1.335850E+00  1.317677E+00  1.299992E+00  1.282775E+00  1.266008E+00  1.249674E+00  1.233756E+00  1.218239E+00
 1.203107E+00  1.188346E+00  1.173944E+00  1.159886E+00  1.146161E+00  1.132757E+00  1.119663E+00  1.106868E+00  1.094362E+00  1.082136E+00
 1.070180E+00  1.058486E+00  1.047044E+00  1.035847E+00  1.024887E+00  1.014157E+00  1.003649E+00  9.933581E-01  9.832764E-01  9.733977E-01
 1.712069E+02  9.832226E+01  4.591830E+01  2.936948E+01  2.194713E+01  1.771854E+01  1.492840E+01  1.292049E+01  1.139569E+01  1.019487E+01
 9.223605E+00  8.421488E+00  7.747772E+00  7.173882E+00  6.679153E+00  6.248260E+00  5.869596E+00  5.534207E+00  5.235076E+00  4.966624E+00
 4.724362E+00  4.504635E+00  4.304439E+00  4.121281E+00  3.953074E+00  3.798060E+00  3.654745E+00  3.521852E+00  3.398285E+00  3.283095E+00
 3.175458E+00  3.074656E+00  2.980056E+00  2.891104E+00  2.807309E+00  2.728234E+00  2.653493E+00  2.582737E+00  2.515657E+00  2.451973E+00
 2.391434E+00  2.333813E+00  2.278903E+00  2.226518E+00  2.176487E+00  2.128655E+00  2.082880E+00  2.039033E+00  1.996994E+00  1.956653E+00
 1.917910E+00  1.880672E+00  1.844852E+00  1.810371E+00  1.777156E+00  1.745137E+00  1.714252E+00  1.684441E+00  1.655650E+00  1.627826E+00
 1.600921E+00  1.574892E+00  1.549696E+00  1.525293E+00  1.501647E+00  1.478723E+00  1.456489E+00  1.434913E+00  1.413967E+00  1.393624E+00
 1.373858E+00  1.354645E+00  1.335962E+00  1.317787E+00  1.300100E+00  1.282882E+00  1.266114E+00  1.249778E+00  1.233859E+00  1.218340E+00
 1.203207E+00  1.188445E+00  1.174041E+00  1.159982E+00  1.146256E+00  1.132851E+00  1.119756E+00  1.106960E+00  1.094453E+00  1.082226E+00
 1.070269E+00  1.058574E+00  1.047131E+00  1.035933E+00  1.024972E+00  1.014240E+00  1.003730E+00  9.934354E-01  9.833490E-01  9.734653E-01
 1.649926E+02  9.533702E+01  4.518870E+01  2.919967E+01  2.190658E+01  1.770917E+01  1.492680E+01  1.292082E+01  1.139644E+01  1.019567E+01
 9.224364E+00  8.422189E+00  7.748419E+00  7.174482E+00  6.679711E+00  6.248782E+00  5.870086E+00  5.534669E+00  5.235513E+00  4.967038E+00
 4.724756E+00  4.505011E+00  4.304798E+00  4.121625E+00  3.953404E+00  3.798377E+00  3.655049E+00  3.522145E+00  3.398568E+00  3.283368E+00
 3.175723E+00  3.074912E+00  2.980305E+00  2.891345E+00  2.807543E+00  2.728462E+00  2.653714E+00  2.582952E+00  2.515866E+00  2.452177E+00
 2.391633E+00  2.334007E+00  2.279093E+00  2.226703E+00  2.176668E+00  2.128832E+00  2.083054E+00  2.039203E+00  1.997160E+00  1.956816E+00
 1.918070E+00  1.880829E+00  1.845006E+00  1.810522E+00  1.777304E+00  1.745283E+00  1.714395E+00  1.684582E+00  1.655787E+00  1.627961E+00
 1.601055E+00  1.575023E+00  1.549825E+00  1.525420E+00  1.501772E+00  1.478846E+00  1.456610E+00  1.435032E+00  1.414085E+00  1.393740E+00
 1.373972E+00  1.354757E+00  1.336073E+00  1.317897E+00  1.300208E+00  1.282989E+00  1.266219E+00  1.249882E+00  1.233962E+00  1.218442E+00
 1.203307E+00  1.188544E+00  1.174139E+00  1.160079E+00  1.146352E+00  1.132945E+00  1.119849E+00  1.107052E+00  1.094545E+00  1.082316E+00
 1.070358E+00  1.058662E+00  1.047218E+00  1.036019E+00  1.025056E+00  1.014323E+00  1.003811E+00  9.935128E-01  9.834216E-01  9.735327E-01
 1.517231E+02  8.914189E+01  4.377952E+01  2.887492E+01  2.182786E+01  1.768997E+01  1.492261E+01  1.292045E+01  1.139701E+01  1.019642E+01
 9.225108E+00  8.422886E+00  7.749065E+00  7.175081E+00  6.680269E+00  6.249304E+00  5.870576E+00  5.535131E+00  5.235949E+00  4.967452E+00
 4.725150E+00  4.505386E+00  4.305157E+00  4.121968E+00  3.953733E+00  3.798693E+00  3.655354E+00  3.522439E+00  3.398851E+00  3.283642E+00
 3.175987E+00  3.075168E+00  2.980553E+00  2.891586E+00  2.807777E+00  2.728689E+00  2.653935E+00  2.583167E+00  2.516076E+00  2.452382E+00
 2.391833E+00  2.334202E+00  2.279283E+00  2.226889E+00  2.176849E+00  2.129009E+00  2.083227E+00  2.039373E+00  1.997327E+00  1.956979E+00
 1.918230E+00  1.880985E+00  1.845159E+00  1.810673E+00  1.777452E+00  1.745428E+00  1.714538E+00  1.684722E+00  1.655925E+00  1.628097E+00
 1.601188E+00  1.575155E+00  1.549954E+00  1.525547E+00  1.501897E+00  1.478969E+00  1.456731E+00  1.435152E+00  1.414202E+00  1.393856E+00
 1.374087E+00  1.354870E+00  1.336184E+00  1.318006E+00  1.300317E+00  1.283095E+00  1.266324E+00  1.249986E+00  1.234064E+00  1.218543E+00
 1.203407E+00  1.188643E+00  1.174237E+00  1.160176E+00  1.146447E+00  1.133040E+00  1.119942E+00  1.107144E+00  1.094636E+00  1.082406E+00
 1.070447E+00  1.058750E+00  1.047305E+00  1.036104E+00  1.025141E+00  1.014406E+00  1.003891E+00  9.935902E-01  9.834942E-01  9.735997E-01
 1.296020E+02  7.928293E+01  4.181456E+01  2.842977E+01  2.171928E+01  1.766301E+01  1.491635E+01  1.291953E+01  1.139742E+01  1.019713E+01
 9.225840E+00  8.423580E+00  7.749709E+00  7.175679E+00  6.680826E+00  6.249825E+00  5.871066E+00  5.535592E+00  5.236386E+00  4.967866E+00
 4.725543E+00  4.505762E+00  4.305516E+00  4.122312E+00  3.954063E+00  3.799009E+00  3.655658E+00  3.522732E+00  3.399134E+00  3.283915E+00
 3.176252E+00  3.075424E+00  2.980801E+00  2.891827E+00  2.808010E+00  2.728916E+00  2.654156E+00  2.583382E+00  2.516285E+00  2.452586E+00
 2.392032E+00  2.334396E+00  2.279472E+00  2.227074E+00  2.177030E+00  2.129187E+00  2.083401E+00  2.039542E+00  1.997493E+00  1.957142E+00
 1.918389E+00  1.881142E+00  1.845313E+00  1.810824E+00  1.777600E+00  1.745573E+00  1.714680E+00  1.684862E+00  1.656063E+00  1.628232E+00
 1.601321E+00  1.575286E+00  1.550083E+00  1.525674E+00  1.502022E+00  1.479092E+00  1.456852E+00  1.435271E+00  1.414320E+00  1.393972E+00
 1.374201E+00  1.354983E+00  1.336295E+00  1.318116E+00  1.300425E+00  1.283202E+00  1.266430E+00  1.250090E+00  1.234167E+00  1.218644E+00
 1.203508E+00  1.188742E+00  1.174334E+00  1.160272E+00  1.146542E+00  1.133134E+00  1.120036E+00  1.107236E+00  1.094727E+00  1.082496E+00
 1.070536E+00  1.058838E+00  1.047392E+00  1.036190E+00  1.025225E+00  1.014489E+00  1.003972E+00  9.936678E-01  9.835669E-01  9.736660E-01
 9.601539E+01  6.518011E+01  3.952166E+01  2.791330E+01  2.159219E+01  1.763115E+01  1.490879E+01  1.291825E+01  1.139774E+01  1.019781E+01
 9.226565E+00  8.424271E+00  7.750353E+00  7.176277E+00  6.681383E+00  6.250346E+00  5.871555E+00  5.536054E+00  5.236822E+00  4.968280E+00