# vtk DataFile Version 2.0
PFLOTRAN output
ASCII
DATASET UNSTRUCTURED_GRID
POINTS          462 float
 0.000000E+00  0.000000E+00  0.000000E+00
 1.000000E+01  0.000000E+00  0.000000E+00
 2.000000E+01  0.000000E+00  0.000000E+00
 3.000000E+01  0.000000E+00  0.000000E+00
 4.000000E+01  0.000000E+00  0.000000E+00
 5.000000E+01  0.000000E+00  0.000000E+00
 6.000000E+01  0.000000E+00  0.000000E+00
 7.000000E+01  0.000000E+00  0.000000E+00
 8.000000E+01  0.000000E+00  0.000000E+00
 9.000000E+01  0.000000E+00  0.000000E+00
 1.000000E+02  0.000000E+00  0.000000E+00
 0.000000E+00  1.000000E+00  0.000000E+00
 1.000000E+01  1.000000E+00  0.000000E+00
 2.000000E+01  1.000000E+00  0.000000E+00
 3.000000E+01  1.000000E+00  0.000000E+00
 4.000000E+01  1.000000E+00  0.000000E+00
 5.000000E+01  1.000000E+00  0.000000E+00
 6.000000E+01  1.000000E+00  0.000000E+00
 7.000000E+01  1.000000E+00  0.000000E+00
 8.000000E+01  1.000000E+00  0.000000E+00
 9.000000E+01  1.000000E+00  0.000000E+00
 1.000000E+02  1.000000E+00  0.000000E+00
 0.000000E+00  0.000000E+00  5.000000E+00
 1.000000E+01  0.000000E+00  5.000000E+00
 2.000000E+01  0.000000E+00  5.000000E+00
 3.000000E+01  0.000000E+00  5.000000E+00
 4.000000E+01  0.000000E+00  5.000000E+00
 5.000000E+01  0.000000E+00  5.000000E+00
 6.000000E+01  0.000000E+00  5.000000E+00
 7.000000E+01  0.000000E+00  5.000000E+00
 8.000000E+01  0.000000E+00  5.000000E+00
 9.000000E+01  0.000000E+00  5.000000E+00
 1.000000E+02  0.000000E+00  5.000000E+00
 0.000000E+00  1.000000E+00  5.000000E+00
 1.000000E+01  1.000000E+00  5.000000E+00
 2.000000E+01  1.000000E+00  5.000000E+00
 3.000000E+01  1.000000E+00  5.000000E+00
 4.000000E+01  1.000000E+00  5.000000E+00
 5.000000E+01  1.000000E+00  5.000000E+00
 6.000000E+01  1.000000E+00  5.000000E+00
 7.000000E+01  1.000000E+00  5.000000E+00
 8.000000E+01  1.000000E+00  5.000000E+00
 9.000000E+01  1.000000E+00  5.000000E+00
 1.000000E+02  1.000000E+00  5.000000E+00
 0.000000E+00  0.000000E+00  1.000000E+01
 1.000000E+01  0.000000E+00  1.000000E+01
 2.000000E+01  0.000000E+00  1.000000E+01
 3.000000E+01  0.000000E+00  1.000000E+01
 4.000000E+01  0.000000E+00  1.000000E+01
 5.000000E+01  0.000000E+00  1.000000E+01
 6.000000E+01  0.000000E+00  1.000000E+01
 7.000000E+01  0.000000E+00  1.000000E+01
 8.000000E+01  0.000000E+00  1.000000E+01
 9.000000E+01  0.000000E+00  1.000000E+01
 1.000000E+02  0.000000E+00  1.000000E+01
 0.000000E+00  1.000000E+00  1.000000E+01
 1.000000E+01  1.000000E+00  1.000000E+01
 2.000000E+01  1.000000E+00  1.000000E+01
 3.000000E+01  1.000000E+00  1.000000E+01
 4.000000E+01  1.000000E+00  1.000000E+01
 5.000000E+01  1.000000E+00  1.000000E+01
 6.000000E+01  1.000000E+00  1.000000E+01
 7.000000E+01  1.000000E+00  1.000000E+01
 8.000000E+01  1.000000E+00  1.000000E+01
 9.000000E+01  1.000000E+00  1.000000E+01
 1.000000E+02  1.000000E+00  1.000000E+01
 0.000000E+00  0.000000E+00  1.500000E+01
 1.000000E+01  0.000000E+00  1.500000E+01
 2.000000E+01  0.000000E+00  1.500000E+01
 3.000000E+01  0.000000E+00  1.500000E+01
 4.000000E+01  0.000000E+00  1.500000E+01
 5.000000E+01  0.000000E+00  1.500000E+01
 6.000000E+01  0.000000E+00  1.500000E+01
 7.000000E+01  0.000000E+00  1.500000E+01
 8.000000E+01  0.000000E+00  1.500000E+01
 9.000000E+01  0.000000E+00  1.500000E+01
 1.000000E+02  0.000000E+00  1.500000E+01
 0.000000E+00  1.000000E+00  1.500000E+01
 1.000000E+01  1.000000E+00  1.500000E+01
 2.000000E+01  1.000000E+00  1.500000E+01
 3.000000E+01  1.000000E+00  1.500000E+01
 4.000000E+01  1.000000E+00  1.500000E+01
 5.000000E+01  1.000000E+00  1.500000E+01
 6.000000E+01  1.000000E+00  1.500000E+01
 7.000000E+01  1.000000E+00  1.500000E+01
 8.000000E+01  1.000000E+00  1.500000E+01
 9.000000E+01  1.000000E+00  1.500000E+01
 1.000000E+02  1.000000E+00  1.500000E+01
 0.000000E+00  0.000000E+00  2.000000E+01
 1.000000E+01  0.000000E+00  2.000000E+01
 2.000000E+01  0.000000E+00  2.000000E+01
 3.000000E+01  0.000000E+00  2.000000E+01
 4.000000E+01  0.000000E+00  2.000000E+01
 5.000000E+01  0.000000E+00  2.000000E+01
 6.000000E+01  0.000000E+00  2.000000E+01
 7.000000E+01  0.000000E+00  2.000000E+01
 8.000000E+01  0.000000E+00  2.000000E+01
 9.000000E+01  0.000000E+00  2.000000E+01
 1.000000E+02  0.000000E+00  2.000000E+01
 0.000000E+00  1.000000E+00  2.000000E+01
 1.000000E+01  1.000000E+00  2.000000E+01
 2.000000E+01  1.000000E+00  2.000000E+01
 3.000000E+01  1.000000E+00  2.000000E+01
 4.000000E+01  1.000000E+00  2.000000E+01
 5.000000E+01  1.000000E+00  2.000000E+01
 6.000000E+01  1.000000E+00  2.000000E+01
 7.000000E+01  1.000000E+00  2.000000E+01
 8.000000E+01  1.000000E+00  2.000000E+01
 9.000000E+01  1.000000E+00  2.000000E+01
 1.000000E+02  1.000000E+00  2.000000E+01
 0.000000E+00  0.000000E+00  2.500000E+01
 1.000000E+01  0.000000E+00  2.500000E+01
 2.000000E+01  0.000000E+00  2.500000E+01
 3.000000E+01  0.000000E+00  2.500000E+01
 4.000000E+01  0.000000E+00  2.500000E+01
 5.000000E+01  0.000000E+00  2.500000E+01
 6.000000E+01  0.000000E+00  2.500000E+01
 7.000000E+01  0.000000E+00  2.500000E+01
 8.000000E+01  0.000000E+00  2.500000E+01
 9.000000E+01  0.000000E+00  2.500000E+01
 1.000000E+02  0.000000E+00  2.500000E+01
 0.000000E+00  1.000000E+00  2.500000E+01
 1.000000E+01  1.000000E+00  2.500000E+01
 2.000000E+01  1.000000E+00  2.500000E+01
 3.000000E+01  1.000000E+00  2.500000E+01
 4.000000E+01  1.000000E+00  2.500000E+01
 5.000000E+01  1.000000E+00  2.500000E+01
 6.000000E+01  1.000000E+00  2.500000E+01
 7.000000E+01  1.000000E+00  2.500000E+01
 8.000000E+01  1.000000E+00  2.500000E+01
 9.000000E+01  1.000000E+00  2.500000E+01
 1.000000E+02  1.000000E+00  2.500000E+01
 0.000000E+00  0.000000E+00  3.000000E+01
 1.000000E+01  0.000000E+00  3.000000E+01
 2.000000E+01  0.000000E+00  3.000000E+01
 3.000000E+01  0.000000E+00  3.000000E+01
 4.000000E+01  0.000000E+00  3.000000E+01
 5.000000E+01  0.000000E+00  3.000000E+01
 6.000000E+01  0.000000E+00  3.000000E+01
 7.000000E+01  0.000000E+00  3.000000E+01
 8.000000E+01  0.000000E+00  3.000000E+01
 9.000000E+01  0.000000E+00  3.000000E+01
 1.000000E+02  0.000000E+00  3.000000E+01
 0.000000E+00  1.000000E+00  3.000000E+01
 1.000000E+01  1.000000E+00  3.000000E+01
 2.000000E+01  1.000000E+00  3.000000E+01
 3.000000E+01  1.000000E+00  3.000000E+01
 4.000000E+01  1.000000E+00  3.000000E+01
 5.000000E+01  1.000000E+00  3.000000E+01
 6.000000E+01  1.000000E+00  3.000000E+01
 7.000000E+01  1.000000E+00  3.000000E+01
 8.000000E+01  1.000000E+00  3.000000E+01
 9.000000E+01  1.000000E+00  3.000000E+01
 1.000000E+02  1.000000E+00  3.000000E+01
 0.000000E+00  0.000000E+00  3.500000E+01
 1.000000E+01  0.000000E+00  3.500000E+01
 2.000000E+01  0.000000E+00  3.500000E+01
 3.000000E+01  0.000000E+00  3.500000E+01
 4.000000E+01  0.000000E+00  3.500000E+01
 5.000000E+01  0.000000E+00  3.500000E+01
 6.000000E+01  0.000000E+00  3.500000E+01
 7.000000E+01  0.000000E+00  3.500000E+01
 8.000000E+01  0.000000E+00  3.500000E+01
 9.000000E+01  0.000000E+00  3.500000E+01
 1.000000E+02  0.000000E+00  3.500000E+01
 0.000000E+00  1.000000E+00  3.500000E+01
 1.000000E+01  1.000000E+00  3.500000E+01
 2.000000E+01  1.000000E+00  3.500000E+01
 3.000000E+01  1.000000E+00  3.500000E+01
 4.000000E+01  1.000000E+00  3.500000E+01
 5.000000E+01  1.000000E+00  3.500000E+01
 6.000000E+01  1.000000E+00  3.500000E+01
 7.000000E+01  1.000000E+00  3.500000E+01
 8.000000E+01  1.000000E+00  3.500000E+01
 9.000000E+01  1.000000E+00  3.500000E+01
 1.000000E+02  1.000000E+00  3.500000E+01
 0.000000E+00  0.000000E+00  4.000000E+01
 1.000000E+01  0.000000E+00  4.000000E+01
 2.000000E+01  0.000000E+00  4.000000E+01
 3.000000E+01  0.000000E+00  4.000000E+01
 4.000000E+01  0.000000E+00  4.000000E+01
 5.000000E+01  0.000000E+00  4.000000E+01
 6.000000E+01  0.000000E+00  4.000000E+01
 7.000000E+01  0.000000E+00  4.000000E+01
 8.000000E+01  0.000000E+00  4.000000E+01
 9.000000E+01  0.000000E+00  4.000000E+01
 1.000000E+02  0.000000E+00  4.000000E+01
 0.000000E+00  1.000000E+00  4.000000E+01
 1.000000E+01  1.000000E+00  4.000000E+01
 2.000000E+01  1.000000E+00  4.000000E+01
 3.000000E+01  1.000000E+00  4.000000E+01
 4.000000E+01  1.000000E+00  4.000000E+01
 5.000000E+01  1.000000E+00  4.000000E+01
 6.000000E+01  1.000000E+00  4.000000E+01
 7.000000E+01  1.000000E+00  4.000000E+01
 8.000000E+01  1.000000E+00  4.000000E+01
 9.000000E+01  1.000000E+00  4.000000E+01
 1.000000E+02  1.000000E+00  4.000000E+01
 0.000000E+00  0.000000E+00  4.500000E+01
 1.000000E+01  0.000000E+00  4.500000E+01
 2.000000E+01  0.000000E+00  4.500000E+01
 3.000000E+01  0.000000E+00  4.500000E+01
 4.000000E+01  0.000000E+00  4.500000E+01
 5.000000E+01  0.000000E+00  4.500000E+01
 6.000000E+01  0.000000E+00  4.500000E+01
 7.000000E+01  0.000000E+00  4.500000E+01
 8.000000E+01  0.000000E+00  4.500000E+01
 9.000000E+01  0.000000E+00  4.500000E+01
 1.000000E+02  0.000000E+00  4.500000E+01
 0.000000E+00  1.000000E+00  4.500000E+01
 1.000000E+01  1.000000E+00  4.500000E+01
 2.000000E+01  1.000000E+00  4.500000E+01
 3.000000E+01  1.000000E+00  4.500000E+01
 4.000000E+01  1.000000E+00  4.500000E+01
 5.000000E+01  1.000000E+00  4.500000E+01
 6.000000E+01  1.000000E+00  4.500000E+01
 7.000000E+01  1.000000E+00  4.500000E+01
 8.000000E+01  1.000000E+00  4.500000E+01
 9.000000E+01  1.000000E+00  4.500000E+01
 1.000000E+02  1.000000E+00  4.500000E+01
 0.000000E+00  0.000000E+00  5.000000E+01
 1.000000E+01  0.000000E+00  5.000000E+01
 2.000000E+01  0.000000E+00  5.000000E+01
 3.000000E+01  0.000000E+00  5.000000E+01
 4.000000E+01  0.000000E+00  5.000000E+01
 5.000000E+01  0.000000E+00  5.000000E+01
 6.000000E+01  0.000000E+00  5.000000E+01
 7.000000E+01  0.000000E+00  5.000000E+01
 8.000000E+01  0.000000E+00  5.000000E+01
 9.000000E+01  0.000000E+00  5.000000E+01
 1.000000E+02  0.000000E+00  5.000000E+01
 0.000000E+00  1.000000E+00  5.000000E+01
 1.000000E+01  1.000000E+00  5.000000E+01
 2.000000E+01  1.000000E+00  5.000000E+01
 3.000000E+01  1.000000E+00  5.000000E+01
[...]
CELL_DATA      200
SCALARS Vlx                  float 1
LOOKUP_TABLE default
 1.876557E+00  2.486186E+00  2.929752E+00  2.958381E+00  2.775939E+00  2.521564E+00  2.262906E+00  2.026623E+00  1.819696E+00  1.640412E+00
 2.197174E+00  2.772534E+00  3.136280E+00  3.080262E+00  2.841805E+00  2.555982E+00  2.280837E+00  2.036190E+00  1.825165E+00  1.644139E+00
 2.962158E+00  3.413397E+00  3.568475E+00  3.324464E+00  2.970433E+00  2.622121E+00  2.314838E+00  2.054077E+00  1.835252E+00  1.650900E+00
 4.488786E+00  4.568128E+00  4.261925E+00  3.689386E+00  3.155277E+00  2.715181E+00  2.362095E+00  2.078721E+00  1.849047E+00  1.660086E+00
 7.473869E+00  6.541235E+00  5.256990E+00  4.164526E+00  3.384336E+00  2.827641E+00  2.418444E+00  2.107872E+00  1.865271E+00  1.670846E+00
 1.343248E+01  9.891265E+00  6.564383E+00  4.719838E+00  3.638432E+00  2.949319E+00  2.478624E+00  2.138775E+00  1.882391E+00  1.682168E+00
 2.571867E+01  1.564272E+01  8.072355E+00  5.293551E+00  3.890907E+00  3.067988E+00  2.536714E+00  2.168427E+00  1.898759E+00  1.692973E+00
 3.149112E+01  1.886242E+01  9.295222E+00  5.792211E+00  4.111159E+00  3.170831E+00  2.586751E+00  2.193866E+00  1.912773E+00  1.702219E+00
 3.423061E+01  2.060638E+01  1.011118E+01  6.151227E+00  4.272799E+00  3.246411E+00  2.623438E+00  2.212484E+00  1.923027E+00  1.708993E+00
 3.533491E+01  2.137249E+01  1.051319E+01  6.337406E+00  4.358073E+00  3.286449E+00  2.642895E+00  2.222380E+00  1.928507E+00  1.712640E+00
 3.533505E+01  2.137261E+01  1.051328E+01  6.337480E+00  4.358142E+00  3.286522E+00  2.642975E+00  2.222472E+00  1.928614E+00  1.712763E+00
 3.423128E+01  2.060699E+01  1.011170E+01  6.151656E+00  4.273181E+00  3.246774E+00  2.623802E+00  2.212864E+00  1.923434E+00  1.709426E+00
 3.149229E+01  1.886347E+01  9.296097E+00  5.792960E+00  4.111835E+00  3.171476E+00  2.587396E+00  2.194534E+00  1.913481E+00  1.702961E+00
 2.572012E+01  1.564404E+01  8.073503E+00  5.294578E+00  3.891859E+00  3.068908E+00  2.537637E+00  2.169384E+00  1.899769E+00  1.694021E+00
 1.343426E+01  9.892917E+00  6.565855E+00  4.721166E+00  3.639675E+00  2.950527E+00  2.479839E+00  2.140034E+00  1.883714E+00  1.683528E+00
 7.475506E+00  6.542943E+00  5.258675E+00  4.166121E+00  3.385865E+00  2.829143E+00  2.419960E+00  2.109442E+00  1.866916E+00  1.672527E+00
 4.490212E+00  4.569802E+00  4.263752E+00  3.691218E+00  3.157083E+00  2.716976E+00  2.363917E+00  2.080608E+00  1.851018E+00  1.662095E+00
 2.963436E+00  3.415048E+00  3.570428E+00  3.326520E+00  2.972511E+00  2.624211E+00  2.316966E+00  2.056276E+00  1.837542E+00  1.653242E+00
 2.198403E+00  2.774231E+00  3.138396E+00  3.082561E+00  2.844166E+00  2.558369E+00  2.283261E+00  2.038676E+00  1.827740E+00  1.646810E+00
 1.877861E+00  2.488036E+00  2.932108E+00  2.960965E+00  2.778590E+00  2.524216E+00  2.265554E+00  2.029296E+00  1.822450E+00  1.643384E+00


SCALARS Vly                  float 1
LOOKUP_TABLE default
 0.000000E+00  0.000000E+00  0.000000E+00  0.000000E+00  0.000000E+00  0.000000E+00  0.000000E+00  0.000000E+00  0.000000E+00  0.000000E+00
 0.000000E+00  0.000000E+00  0.000000E+00  0.000000E+00  0.000000E+00  0.000000E+00  0.000000E+00  0.000000E+00  0.000000E+00  0.000000E+00
 0.000000E+00  0.000000E+00  0.000000E+00  0.000000E+00  0.000000E+00  0.000000E+00  0.000000E+00  0.000000E+00  0.000000E+00  0.000000E+00
 0.000000E+00  0.000000E+00  0.000000E+00  0.000000E+00  0.000000E+00  0.000000E+00  0.000000E+00  0.000000E+00  0.000000E+00  0.000000E+00
 0.000000E+00  0.000000E+00  0.000000E+00  0.000000E+00  0.000000E+00  0.000000E+00  0.000000E+00  0.000000E+00  0.000000E+00  0.000000E+00
 0.000000E+00  0.000000E+00  0.000000E+00  0.000000E+00  0.000000E+00  0.000000E+00  0.000000E+00  0.000000E+00  0.000000E+00  0.000000E+00
 0.000000E+00  0.000000E+00  0.000000E+00  0.000000E+00  0.000000E+00  0.000000E+00  0.000000E+00  0.000000E+00  0.000000E+00  0.000000E+00
 0.000000E+00  0.000000E+00  0.000000E+00  0.000000E+00  0.000000E+00  0.000000E+00  0.000000E+00  0.000000E+00  0.000000E+00  0.000000E+00
 0.000000E+00  0.000000E+00  0.000000E+00  0.000000E+00  0.000000E+00  0.000000E+00  0.000000E+00  0.000000E+00  0.000000E+00  0.000000E+00
 0.000000E+00  0.000000E+00  0.000000E+00  0.000000E+00  0.000000E+00  0.000000E+00  0.000000E+00  0.000000E+00  0.000000E+00  0.000000E+00
 0.000000E+00  0.000000E+00  0.000000E+00  0.000000E+00  0.000000E+00  0.000000E+00  0.000000E+00  0.000000E+00  0.000000E+00  0.000000E+00
 0.000000E+00  0.000000E+00  0.000000E+00  0.000000E+00  0.000000E+00  0.000000E+00  0.000000E+00  0.000000E+00  0.000000E+00  0.000000E+00
 0.000000E+00  0.000000E+00  0.000000E+00  0.000000E+00  0.000000E+00  0.000000E+00  0.000000E+00  0.000000E+00  0.000000E+00  0.000000E+00
 0.000000E+00  0.000000E+00  0.000000E+00  0.000000E+00  0.000000E+00  0.000000E+00  0.000000E+00  0.000000E+00  0.000000E+00  0.000000E+00
 0.000000E+00  0.000000E+00  0.000000E+00  0.000000E+00  0.000000E+00  0.000000E+00  0.000000E+00  0.000000E+00  0.000000E+00  0.000000E+00
 0.000000E+00  0.000000E+00  0.000000E+00  0.000000E+00  0.000000E+00  0.000000E+00  0.000000E+00  0.000000E+00  0.000000E+00  0.000000E+00
 0.000000E+00  0.000000E+00  0.000000E+00  0.000000E+00  0.000000E+00  0.000000E+00  0.000000E+00  0.000000E+00  0.000000E+00  0.000000E+00
 0.000000E+00  0.000000E+00  0.000000E+00  0.000000E+00  0.000000E+00  0.000000E+00  0.000000E+00  0.000000E+00  0.000000E+00  0.000000E+00
 0.000000E+00  0.000000E+00  0.000000E+00  0.000000E+00  0.000000E+00  0.000000E+00  0.000000E+00  0.000000E+00  0.000000E+00  0.000000E+00
 0.000000E+00  0.000000E+00  0.000000E+00  0.000000E+00  0.000000E+00  0.000000E+00  0.000000E+00  0.000000E+00  0.000000E+00  0.000000E+00


SCALARS Vlz                  float 1
LOOKUP_TABLE default
-1.876538E+00 -1.235103E+00 -6.968836E-01 -3.678051E-01 -1.887868E-01 -9.577954E-02 -4.815598E-02 -2.364824E-02 -1.059191E-02 -2.807659E-03
-2.975102E+00 -1.888956E+00 -1.040905E+00 -5.420477E-01 -2.762290E-01 -1.396207E-01 -7.006369E-02 -3.436756E-02 -1.537902E-02 -4.090105E-03
-5.554620E+00 -3.262067E+00 -1.713514E+00 -8.692915E-01 -4.369760E-01 -2.193161E-01 -1.096543E-01 -5.367688E-02 -2.398500E-02 -6.395524E-03
-9.279531E+00 -4.768988E+00 -2.329872E+00 -1.139218E+00 -5.621404E-01 -2.794766E-01 -1.390454E-01 -6.787807E-02 -3.027609E-02 -8.073691E-03
-1.525912E+01 -6.335650E+00 -2.816045E+00 -1.319038E+00 -6.376173E-01 -3.137130E-01 -1.552172E-01 -7.553460E-02 -3.361825E-02 -8.945195E-03
-2.570722E+01 -7.582073E+00 -3.048156E+00 -1.373103E+00 -6.517012E-01 -3.175763E-01 -1.562869E-01 -7.580657E-02 -3.365281E-02 -8.911328E-03
-2.537916E+01 -7.296369E+00 -2.875795E+00 -1.274887E+00 -5.983828E-01 -2.895045E-01 -1.418186E-01 -6.856696E-02 -3.034226E-02 -7.963721E-03
-1.418486E+01 -5.475255E+00 -2.297644E+00 -1.027172E+00 -4.806025E-01 -2.315176E-01 -1.129994E-01 -5.445030E-02 -2.398456E-02 -6.186805E-03
-7.246770E+00 -3.297759E+00 -1.462902E+00 -6.632201E-01 -3.105702E-01 -1.492417E-01 -7.259787E-02 -3.481490E-02 -1.519189E-02 -3.751050E-03
-2.230055E+00 -1.093528E+00 -4.997117E-01 -2.284763E-01 -1.069824E-01 -5.119861E-02 -2.468523E-02 -1.161306E-02 -4.831952E-03 -8.959455E-04
 2.234734E+00  1.095936E+00  5.013539E-01  2.297681E-01  1.081180E-01  5.229607E-02  2.582215E-02  1.281461E-02  6.060465E-03  2.094824E-03
 7.251336E+00  3.300212E+00  1.464581E+00  6.645245E-01  3.117024E-01  1.503267E-01  7.371636E-02  3.599302E-02  1.639377E-02  4.924264E-03
 1.418918E+01  5.477786E+00  2.299378E+00  1.028491E+00  4.817231E-01  2.325755E-01  1.140802E-01  5.558179E-02  2.513511E-02  7.311833E-03
 2.538348E+01  7.299038E+00  2.877581E+00  1.276208E+00  5.994758E-01  2.905164E-01  1.428398E-01  6.962735E-02  3.141683E-02  9.020794E-03
 2.571170E+01  7.584861E+00  3.049969E+00  1.374402E+00  6.527438E-01  3.185197E-01  1.572245E-01  7.677010E-02  3.462694E-02  9.883641E-03
 1.526333E+01  6.338384E+00  2.817815E+00  1.320273E+00  6.385781E-01  3.145607E-01  1.560446E-01  7.637426E-02  3.446760E-02  9.817461E-03
 9.283071E+00  4.771440E+00  2.331481E+00  1.140322E+00  5.629766E-01  2.801958E-01  1.397327E-01  6.856592E-02  3.097610E-02  8.829074E-03
 5.557325E+00  3.264037E+00  1.714827E+00  8.701833E-01  4.376361E-01  2.198693E-01  1.101704E-01  5.418609E-02  2.451121E-02  7.010617E-03
 2.976851E+00  1.890267E+00  1.041787E+00  5.426406E-01  2.766583E-01  1.399699E-01  7.038071E-02  3.467730E-02  1.570850E-02  4.523770E-03
 1.877777E+00  1.236041E+00  6.975156E-01  3.682267E-01  1.890868E-01  9.601754E-02  4.836740E-02  2.385420E-02  1.081759E-02  3.137123E-03


SCALARS Vgx                  float 1
LOOKUP_TABLE default
 0.000000E+00  0.000000E+00  0.000000E+00  0.000000E+00  0.000000E+00  0.000000E+00  0.000000E+00  0.000000E+00  0.000000E+00  0.000000E+00
 0.000000E+00  0.000000E+00  0.000000E+00  0.000000E+00  0.000000E+00  0.000000E+00  0.000000E+00  0.000000E+00  0.000000E+00  0.000000E+00
 0.000000E+00  0.000000E+00  0.000000E+00  0.000000E+00  0.000000E+00  0.000000E+00  0.000000E+00  0.000000E+00  0.000000E+00  0.000000E+00
 0.000000E+00  0.000000E+00  0.000000E+00  0.000000E+00  0.000000E+00  0.000000E+00  0.000000E+00  0.000000E+00  0.000000E+00  0.000000E+00
 0.000000E+00  0.000000E+00  0.000000E+00  0.000000E+00  0.000000E+00  0.000000E+00  0.000000E+00  0.000000E+00  0.000000E+00  0.000000E+00
 0.000000E+00  0.000000E+00  0.000000E+00  0.000000E+00  0.000000E+00  0.000000E+00  0.000000E+00  0.000000E+00  0.000000E+00  0.000000E+00
 0.000000E+00  0.000000E+00  0.000000E+00  0.000000E+00  0.000000E+00  0.000000E+00  0.000000E+00  0.000000E+00  0.000000E+00  0.000000E+00
 0.000000E+00  0.000000E+00  0.000000E+00  0.000000E+00  0.000000E+00  0.000000E+00  0.000000E+00  0.000000E+00  0.000000E+00  0.000000E+00
 0.000000E+00  0.000000E+00  0.000000E+00  0.000000E+00  0.000000E+00  0.000000E+00  0.000000E+00  0.000000E+00  0.000000E+00  0.000000E+00
 0.000000E+00  0.000000E+00  0.000000E+00  0.000000E+00  0.000000E+00  0.000000E+00  0.000000E+00  0.000000E+00  0.000000E+00  0.000000E+00
 0.000000E+00  0.000000E+00  0.000000E+00  0.000000E+00  0.000000E+00  0.000000E+00  0.000000E+00  0.000000E+00  0.000000E+00  0.000000E+00
 0.000000E+00  0.000000E+00  0.000000E+00  0.000000E+00  0.000000E+00  0.000000E+00  0.000000E+00  0.000000E+00  0.000000E+00  0.000000E+00
 0.000000E+00  0.000000E+00  0.000000E+00  0.000000E+00  0.000000E+00  0.000000E+00  0.000000E+00  0.000000E+00  0.000000E+00  0.000000E+00
 0.000000E+00  0.000000E+00  0.000000E+00  0.000000E+00  0.000000E+00  0.000000E+00  0.000000E+00  0.000000E+00  0.000000E+00  0.000000E+00
 0.000000E+00  0.000000E+00  0.000000E+00  0.000000E+00  0.000000E+00  0.000000E+00  0.000000E+00  0.000000E+00  0.000000E+00  0.000000E+00
 0.000000E+00  0.000000E+00  0.000000E+00  0.000000E+00  0.000000E+00  0.000000E+00  0.000000E+00  0.000000E+00  0.000000E+00  0.000000E+00
 0.000000E+00  0.000000E+00  0.000000E+00  0.000000E+00  0.000000E+00  0.000000E+00  0.000000E+00  0.000000E+00  0.000000E+00  0.000000E+00
 0.000000E+00  0.000000E+00  0.000000E+00  0.000000E+00  0.000000E+00  0.000000E+00  0.000000E+00  0.000000E+00  0.000000E+00  0.000000E+00
 0.000000E+00  0.000000E+00  0.000000E+00  0.000000E+00  0.000000E+00  0.000000E+00  0.000000E+00  0.000000E+00  0.000000E+00  0.000000E+00
 0.000000E+00  0.000000E+00  0.000000E+00  0.000000E+00  0.000000E+00  0.000000E+00  0.000000E+00  0.000000E+00  0.000000E+00  0.000000E+00


SCALARS Vgy                  float 1
LOOKUP_TABLE default
 0.000000E+00  0.000000E+00  0.000000E+00  0.000000E+00  0.000000E+00  0.000000E+00  0.000000E+00  0.000000E+00  0.000000E+00  0.000000E+00
 0.000000E+00  0.000000E+00  0.000000E+00  0.000000E+00  0.000000E+00  0.000000E+00  0.000000E+00  0.000000E+00  0.000000E+00  0.000000E+00
 0.000000E+00  0.000000E+00  0.000000E+00  0.000000E+00  0.000000E+00  0.000000E+00  0.000000E+00  0.000000E+00  0.000000E+00  0.000000E+00
 0.000000E+00  0.000000E+00  0.000000E+00  0.000000E+00  0.000000E+00  0.000000E+00  0.000000E+00  0.000000E+00  0.000000E+00  0.000000E+00
 0.000000E+00  0.000000E+00  0.000000E+00  0.000000E+00  0.000000E+00  0.000000E+00  0.000000E+00  0.000000E+00  0.000000E+00  0.000000E+00
 0.000000E+00  0.000000E+00  0.000000E+00  0.000000E+00  0.000000E+00  0.000000E+00  0.000000E+00  0.000000E+00  0.000000E+00  0.000000E+00
 0.000000E+00  0.000000E+00  0.000000E+00  0.000000E+00  0.000000E+00  0.000000E+00  0.000000E+00  0.000000E+00  0.000000E+00  0.000000E+00
 0.000000E+00  0.000000E+00  0.000000E+00  0.000000E+00  0.000000E+00  0.000000E+00  0.000000E+00  0.000000E+00  0.000000E+00  0.000000E+00
 0.000000E+00  0.000000E+00  0.000000E+00  0.000000E+00  0.000000E+00  0.000000E+00  0.000000E+00  0.000000E+00  0.000000E+00  0.000000E+00
 0.000000E+00  0.000000E+00  0.000000E+00  0.000000E+00  0.000000E+00  0.000000E+00  0.000000E+00  0.000000E+00  0.000000E+00  0.000000E+00
 0.000000E+00  0.000000E+00  0.000000E+00  0.000000E+00  0.000000E+00  0.000000E+00  0.000000E+00  0.000000E+00  0.000000E+00  0.000000E+00
 0.000000E+00  0.000000E+00  0.000000E+00  0.000000E+00  0.000000E+00  0.000000E+00  0.000000E+00  0.000000E+00  0.000000E+00  0.000000E+00
 0.000000E+00  0.000000E+00  0.000000E+00  0.000000E+00  0.000000E+00  0.000000E+00  0.000000E+00  0.000000E+00  0.000000E+00  0.000000E+00
 0.000000E+00  0.000000E+00  0.000000E+00  0.000000E+00  0.000000E+00  0.000000E+00  0.000000E+00  0.000000E+00  0.000000E+00  0.000000E+00
 0.000000E+00  0.000000E+00  0.000000E+00  0.000000E+00  0.000000E+00  0.000000E+00  0.000000E+00  0.000000E+00  0.000000E+00  0.000000E+00
 0.000000E+00  0.000000E+00  0.000000E+00  0.000000E+00  0.000000E+00  0.000000E+00  0.000000E+00  0.000000E+00  0.000000E+00  0.000000E+00
 0.000000E+00  0.000000E+00  0.000000E+00  0.000000E+00  0.000000E+00  0.000000E+00  0.000000E+00  0.000000E+00  0.000000E+00  0.000000E+00
 0.000000E+00  0.000000E+00  0.000000E+00  0.000000E+00  0.000000E+00  0.000000E+00  0.000000E+00  0.000000E+00  0.000000E+00  0.000000E+00
 0.000000E+00  0.000000E+00  0.000000E+00  0.000000E+00  0.000000E+00  0.000000E+00  0.000000E+00  0.000000E+00  0.000000E+00  0.000000E+00
 0.000000E+00  0.000000E+00  0.000000E+00  0.000000E+00  0.000000E+00  0.000000E+00  0.000000E+00  0.000000E+00  0.000000E+00  0.000000E+00


SCALARS Vgz                  float 1
LOOKUP_TABLE default
 0.000000E+00  0.000000E+00  0.000000E+00  0.000000E+00  0.000000E+00  0.000000E+00  0.000000E+00  0.000000E+00  0.000000E+00  0.000000E+00
 0.000000E+00  0.000000E+00  0.000000E+00  0.000000E+00  0.000000E+00  0.000000E+00  0.000000E+00  0.000000E+00  0.000000E+00  0.000000E+00
 0.000000E+00  0.000000E+00  0.000000E+00  0.000000E+00  0.000000E+00  0.000000E+00  0.000000E+00  0.000000E+00  0.000000E+00  0.000000E+00
 0.000000E+00  0.000000E+00  0.000000E+00  0.000000E+00  0.000000E+00  0.000000E+00  0.000000E+00  0.000000E+00  0.000000E+00  0.000000E+00
 0.000000E+00  0.000000E+00  0.000000E+00  0.000000E+00  0.000000E+00  0.000000E+00  0.000000E+00  0.000000E+00  0.000000E+00  0.000000E+00
 0.000000E+00  0.000000E+00  0.000000E+00  0.000000E+00  0.000000E+00  0.000000E+00  0.000000E+00  0.000000E+00  0.000000E+00  0.000000E+00
 0.000000E+00  0.000000E+00  0.000000E+00  0.000000E+00  0.000000E+00  0.000000E+00  0.000000E+00  0.000000E+00  0.000000E+00  0.000000E+00
 0.000000E+00  0.000000E+00  0.000000E+00  0.000000E+00  0.000000E+00  0.000000E+00  0.000000E+00  0.000000E+00  0.000000E+00  0.000000E+00
 0.000000E+00  0.000000E+00  0.000000E+00  0.000000E+00  0.000000E+00  0.000000E+00  0.000000E+00  0.000000E+00  0.000000E+00  0.000000E+00
 0.000000E+00  0.000000E+00  0.000000E+00  0.000000E+00  0.000000E+00  0.000000E+00  0.000000E+00  0.000000E+00  0.000000E+00  0.000000E+00
 0.000000E+00  0.000000E+00  0.000000E+00  0.000000E+00  0.000000E+00  0.000000E+00  0.000000E+00  0.000000E+00  0.000000E+00  0.000000E+00
 0.000000E+00  0.000000E+00  0.000000E+00  0.000000E+00  0.000000E+00  0.000000E+00  0.000000E+00  0.000000E+00  0.000000E+00  0.000000E+00
 0.000000E+00  0.000000E+00  0.000000E+00  0.000000E+00  0.000000E+00  0.000000E+00  0.000000E+00  0.000000E+00  0.000000E+00  0.000000E+00
 0.000000E+00  0.000000E+00  0.000000E+00  0.000000E+00  0.000000E+00  0.000000E+00  0.000000E+00  0.000000E+00  0.000000E+00  0.000000E+00
 0.000000E+00  0.000000E+00  0.000000E+00  0.000000E+00  0.000000E+00  0.000000E+00  0.000000E+00  0.000000E+00  0.000000E+00  0.000000E+00
 0.000000E+00  0.000000E+00  0.000000E+00  0.000000E+00  0.000000E+00  0.000000E+00  0.000000E+00  0.000000E+00  0.000000E+00  0.000000E+00
 0.000000E+00  0.000000E+00  0.000000E+00  0.000000E+00  0.000000E+00  0.000000E+00  0.000000E+00  0.000000E+00  0.000000E+00  0.000000E+00
 0.000000E+00  0.000000E+00  0.000000E+00  0.000000E+00  0.000000E+00  0.000000E+00  0.000000E+00  0.000000E+00  0.000000E+00  0.000000E+00
 0.000000E+00  0.000000E+00  0.000000E+00  0.000000E+00  0.000000E+00  0.000000E+00  0.000000E+00  0.000000E+00  0.000000E+00  0.000000E+00
 0.000000E+00  0.000000E+00  0.000000E+00  0.000000E+00  0.000000E+00  0.000000E+00  0.000000E+00  0.000000E+00  0.000000E+00  0.000000E+00


SCALARS Material_ID          int 1
LOOKUP_TABLE default
  1
  1
  1
  1
  1
  1
  1
  1
  1
  1
  1
  1
  1
  1
  1
  1
  1
  1
  1
  1
  1
  1
  1
  1
  1
  1
  1
  1
  1
  1
  1
  1
  1
  1
  1
  1
  1
  1
  1
  1
  1
  1
  1
  1
  1
  1
  1
  1
  1
  1
  1
  1
  1
  1
  1
  1
  1
  1
  1
  1
  1
  1
  1
  1
  1
  1
  1
  1
  1
  1
  1
  1
  1
  1
  1
  1
  1
  1
  1
  1
  1
  1
  1
  1
  1
  1
  1
  1
  1
  1
  1
  1
  1
  1
  1
  1
  1
  1
  1
  1
  1
  1
  1
  1
  1
  1
  1
  1
  1
  1
  1
  1
  1
  1
  1
  1
  1
  1
  1
  1
  1
  1
  1
  1
  1
  1
  1
  1
  1
  1
  1
  1
  1
  1
  1
  1
  1
  1
  1
  1
  1
  1
  1
  1
  1
  1
  1
  1
  1
  1
  1
  1
  1
  1
  1
  1
  1
  1
  1
  1
  1
  1
  1
  1
  1
  1
  1
  1
  1
  1
  1
  1
  1
  1
  1
  1
  1
  1
  1
  1
  1
  1
  1
  1
  1
  1
  1
  1
  1
  1
  1
  1
  1
  1
  1
  1
  1
  1
  1
  1


