# vtk DataFile Version 2.0
PFLOTRAN output
ASCII
DATASET UNSTRUCTURED_GRID
POINTS          462 float
 0.000000E+00  0.000000E+00  0.000000E+00
 2.000000E+03  0.000000E+00  0.000000E+00
 4.000000E+03  0.000000E+00  0.000000E+00
 6.000000E+03  0.000000E+00  0.000000E+00
 8.000000E+03  0.000000E+00  0.000000E+00
 1.000000E+04  0.000000E+00  0.000000E+00
 1.200000E+04  0.000000E+00  0.000000E+00
 1.400000E+04  0.000000E+00  0.000000E+00
 1.600000E+04  0.000000E+00  0.000000E+00
 1.800000E+04  0.000000E+00  0.000000E+00
 2.000000E+04  0.000000E+00  0.000000E+00
 0.000000E+00  1.000000E+00  0.000000E+00
 2.000000E+03  1.000000E+00  0.000000E+00
 4.000000E+03  1.000000E+00  0.000000E+00
 6.000000E+03  1.000000E+00  0.000000E+00
 8.000000E+03  1.000000E+00  0.000000E+00
 1.000000E+04  1.000000E+00  0.000000E+00
 1.200000E+04  1.000000E+00  0.000000E+00
 1.400000E+04  1.000000E+00  0.000000E+00
 1.600000E+04  1.000000E+00  0.000000E+00
 1.800000E+04  1.000000E+00  0.000000E+00
 2.000000E+04  1.000000E+00  0.000000E+00
 0.000000E+00  0.000000E+00  5.000000E+00
 2.000000E+03  0.000000E+00  5.000000E+00
 4.000000E+03  0.000000E+00  5.000000E+00
 6.000000E+03  0.000000E+00  5.000000E+00
 8.000000E+03  0.000000E+00  5.000000E+00
 1.000000E+04  0.000000E+00  5.000000E+00
 1.200000E+04  0.000000E+00  5.000000E+00
 1.400000E+04  0.000000E+00  5.000000E+00
 1.600000E+04  0.000000E+00  5.000000E+00
 1.800000E+04  0.000000E+00  5.000000E+00
 2.000000E+04  0.000000E+00  5.000000E+00
 0.000000E+00  1.000000E+00  5.000000E+00
 2.000000E+03  1.000000E+00  5.000000E+00
 4.000000E+03  1.000000E+00  5.000000E+00
 6.000000E+03  1.000000E+00  5.000000E+00
 8.000000E+03  1.000000E+00  5.000000E+00
 1.000000E+04  1.000000E+00  5.000000E+00
 1.200000E+04  1.000000E+00  5.000000E+00
 1.400000E+04  1.000000E+00  5.000000E+00
 1.600000E+04  1.000000E+00  5.000000E+00
 1.800000E+04  1.000000E+00  5.000000E+00
 2.000000E+04  1.000000E+00  5.000000E+00
 0.000000E+00  0.000000E+00  1.000000E+01
 2.000000E+03  0.000000E+00  1.000000E+01
 4.000000E+03  0.000000E+00  1.000000E+01
 6.000000E+03  0.000000E+00  1.000000E+01
 8.000000E+03  0.000000E+00  1.000000E+01
 1.000000E+04  0.000000E+00  1.000000E+01
 1.200000E+04  0.000000E+00  1.000000E+01
 1.400000E+04  0.000000E+00  1.000000E+01
 1.600000E+04  0.000000E+00  1.000000E+01
 1.800000E+04  0.000000E+00  1.000000E+01
 2.000000E+04  0.000000E+00  1.000000E+01
 0.000000E+00  1.000000E+00  1.000000E+01
 2.000000E+03  1.000000E+00  1.000000E+01
 4.000000E+03  1.000000E+00  1.000000E+01
 6.000000E+03  1.000000E+00  1.000000E+01
 8.000000E+03  1.000000E+00  1.000000E+01
 1.000000E+04  1.000000E+00  1.000000E+01
 1.200000E+04  1.000000E+00  1.000000E+01
 1.400000E+04  1.000000E+00  1.000000E+01
 1.600000E+04  1.000000E+00  1.000000E+01
 1.800000E+04  1.000000E+00  1.000000E+01
 2.000000E+04  1.000000E+00  1.000000E+01
 0.000000E+00  0.000000E+00  1.500000E+01
 2.000000E+03  0.000000E+00  1.500000E+01
 4.000000E+03  0.000000E+00  1.500000E+01
 6.000000E+03  0.000000E+00  1.500000E+01
 8.000000E+03  0.000000E+00  1.500000E+01
 1.000000E+04  0.000000E+00  1.500000E+01
 1.200000E+04  0.000000E+00  1.500000E+01
 1.400000E+04  0.000000E+00  1.500000E+01
 1.600000E+04  0.000000E+00  1.500000E+01
 1.800000E+04  0.000000E+00  1.500000E+01
 2.000000E+04  0.000000E+00  1.500000E+01
 0.000000E+00  1.000000E+00  1.500000E+01
 2.000000E+03  1.000000E+00  1.500000E+01
 4.000000E+03  1.000000E+00  1.500000E+01
 6.000000E+03  1.000000E+00  1.500000E+01
 8.000000E+03  1.000000E+00  1.500000E+01
 1.000000E+04  1.000000E+00  1.500000E+01
 1.200000E+04  1.000000E+00  1.500000E+01
 1.400000E+04  1.000000E+00  1.500000E+01
 1.600000E+04  1.000000E+00  1.500000E+01
 1.800000E+04  1.000000E+00  1.500000E+01
 2.000000E+04  1.000000E+00  1.500000E+01
 0.000000E+00  0.000000E+00  2.000000E+01
 2.000000E+03  0.000000E+00  2.000000E+01
 4.000000E+03  0.000000E+00  2.000000E+01
 6.000000E+03  0.000000E+00  2.000000E+01
 8.000000E+03  0.000000E+00  2.000000E+01
 1.000000E+04  0.000000E+00  2.000000E+01
 1.200000E+04  0.000000E+00  2.000000E+01
 1.400000E+04  0.000000E+00  2.000000E+01
 1.600000E+04  0.000000E+00  2.000000E+01
 1.800000E+04  0.000000E+00  2.000000E+01
 2.000000E+04  0.000000E+00  2.000000E+01
 0.000000E+00  1.000000E+00  2.000000E+01
 2.000000E+03  1.000000E+00  2.000000E+01
 4.000000E+03  1.000000E+00  2.000000E+01
 6.000000E+03  1.000000E+00  2.000000E+01
 8.000000E+03  1.000000E+00  2.000000E+01
 1.000000E+04  1.000000E+00  2.000000E+01
 1.200000E+04  1.000000E+00  2.000000E+01
 1.400000E+04  1.000000E+00  2.000000E+01
 1.600000E+04  1.000000E+00  2.000000E+01
 1.800000E+04  1.000000E+00  2.000000E+01
 2.000000E+04  1.000000E+00  2.000000E+01
 0.000000E+00  0.000000E+00  2.500000E+01
 2.000000E+03  0.000000E+00  2.500000E+01
 4.000000E+03  0.000000E+00  2.500000E+01
 6.000000E+03  0.000000E+00  2.500000E+01
 8.000000E+03  0.000000E+00  2.500000E+01
 1.000000E+04  0.000000E+00  2.500000E+01
 1.200000E+04  0.000000E+00  2.500000E+01
 1.400000E+04  0.000000E+00  2.500000E+01
 1.600000E+04  0.000000E+00  2.500000E+01
 1.800000E+04  0.000000E+00  2.500000E+01
 2.000000E+04  0.000000E+00  2.500000E+01
 0.000000E+00  1.000000E+00  2.500000E+01
 2.000000E+03  1.000000E+00  2.500000E+01
 4.000000E+03  1.000000E+00  2.500000E+01
 6.000000E+03  1.000000E+00  2.500000E+01
 8.000000E+03  1.000000E+00  2.500000E+01
 1.000000E+04  1.000000E+00  2.500000E+01
 1.200000E+04  1.000000E+00  2.500000E+01
 1.400000E+04  1.000000E+00  2.500000E+01
 1.600000E+04  1.000000E+00  2.500000E+01
 1.800000E+04  1.000000E+00  2.500000E+01
 2.000000E+04  1.000000E+00  2.500000E+01
 0.000000E+00  0.000000E+00  3.000000E+01
 2.000000E+03  0.000000E+00  3.000000E+01
 4.000000E+03  0.000000E+00  3.000000E+01
 6.000000E+03  0.000000E+00  3.000000E+01
 8.000000E+03  0.000000E+00  3.000000E+01
 1.000000E+04  0.000000E+00  3.000000E+01
 1.200000E+04  0.000000E+00  3.000000E+01
 1.400000E+04  0.000000E+00  3.000000E+01
 1.600000E+04  0.000000E+00  3.000000E+01
 1.800000E+04  0.000000E+00  3.000000E+01
 2.000000E+04  0.000000E+00  3.000000E+01
 0.000000E+00  1.000000E+00  3.000000E+01
 2.000000E+03  1.000000E+00  3.000000E+01
 4.000000E+03  1.000000E+00  3.000000E+01
 6.000000E+03  1.000000E+00  3.000000E+01
 8.000000E+03  1.000000E+00  3.000000E+01
 1.000000E+04  1.000000E+00  3.000000E+01
 1.200000E+04  1.000000E+00  3.000000E+01
 1.400000E+04  1.000000E+00  3.000000E+01
 1.600000E+04  1.000000E+00  3.000000E+01
 1.800000E+04  1.000000E+00  3.000000E+01
 2.000000E+04  1.000000E+00  3.000000E+01
 0.000000E+00  0.000000E+00  3.500000E+01
 2.000000E+03  0.000000E+00  3.500000E+01
 4.000000E+03  0.000000E+00  3.500000E+01
 6.000000E+03  0.000000E+00  3.500000E+01
 8.000000E+03  0.000000E+00  3.500000E+01
 1.000000E+04  0.000000E+00  3.500000E+01
 1.200000E+04  0.000000E+00  3.500000E+01
 1.400000E+04  0.000000E+00  3.500000E+01
 1.600000E+04  0.000000E+00  3.500000E+01
 1.800000E+04  0.000000E+00  3.500000E+01
 2.000000E+04  0.000000E+00  3.500000E+01
 0.000000E+00  1.000000E+00  3.500000E+01
 2.000000E+03  1.000000E+00  3.500000E+01
 4.000000E+03  1.000000E+00  3.500000E+01
 6.000000E+03  1.000000E+00  3.500000E+01
 8.000000E+03  1.000000E+00  3.500000E+01
 1.000000E+04  1.000000E+00  3.500000E+01
 1.200000E+04  1.000000E+00  3.500000E+01
 1.400000E+04  1.000000E+00  3.500000E+01
 1.600000E+04  1.000000E+00  3.500000E+01
 1.800000E+04  1.000000E+00  3.500000E+01
 2.000000E+04  1.000000E+00  3.500000E+01
 0.000000E+00  0.000000E+00  4.000000E+01
 2.000000E+03  0.000000E+00  4.000000E+01
 4.000000E+03  0.000000E+00  4.000000E+01
 6.000000E+03  0.000000E+00  4.000000E+01
 8.000000E+03  0.000000E+00  4.000000E+01
 1.000000E+04  0.000000E+00  4.000000E+01
 1.200000E+04  0.000000E+00  4.000000E+01
 1.400000E+04  0.000000E+00  4.000000E+01
 1.600000E+04  0.000000E+00  4.000000E+01
 1.800000E+04  0.000000E+00  4.000000E+01
 2.000000E+04  0.000000E+00  4.000000E+01
 0.000000E+00  1.000000E+00  4.000000E+01
 2.000000E+03  1.000000E+00  4.000000E+01
 4.000000E+03  1.000000E+00  4.000000E+01
 6.000000E+03  1.000000E+00  4.000000E+01
 8.000000E+03  1.000000E+00  4.000000E+01
 1.000000E+04  1.000000E+00  4.000000E+01
 1.200000E+04  1.000000E+00  4.000000E+01
 1.400000E+04  1.000000E+00  4.000000E+01
 1.600000E+04  1.000000E+00  4.000000E+01
 1.800000E+04  1.000000E+00  4.000000E+01
 2.000000E+04  1.000000E+00  4.000000E+01
 0.000000E+00  0.000000E+00  4.500000E+01
 2.000000E+03  0.000000E+00  4.500000E+01
 4.000000E+03  0.000000E+00  4.500000E+01
 6.000000E+03  0.000000E+00  4.500000E+01
 8.000000E+03  0.000000E+00  4.500000E+01
 1.000000E+04  0.000000E+00  4.500000E+01
 1.200000E+04  0.000000E+00  4.500000E+01
 1.400000E+04  0.000000E+00  4.500000E+01
 1.600000E+04  0.000000E+00  4.500000E+01
 1.800000E+04  0.000000E+00  4.500000E+01
 2.000000E+04  0.000000E+00  4.500000E+01
 0.000000E+00  1.000000E+00  4.500000E+01
 2.000000E+03  1.000000E+00  4.500000E+01
 4.000000E+03  1.000000E+00  4.500000E+01
 6.000000E+03  1.000000E+00  4.500000E+01
 8.000000E+03  1.000000E+00  4.500000E+01
 1.000000E+04  1.000000E+00  4.500000E+01
 1.200000E+04  1.000000E+00  4.500000E+01
 1.400000E+04  1.000000E+00  4.500000E+01
 1.600000E+04  1.000000E+00  4.500000E+01
 1.800000E+04  1.000000E+00  4.500000E+01
 2.000000E+04  1.000000E+00  4.500000E+01
 0.000000E+00  0.000000E+00  5.000000E+01
 2.000000E+03  0.000000E+00  5.000000E+01
 4.000000E+03  0.000000E+00  5.000000E+01
 6.000000E+03  0.000000E+00  5.000000E+01
 8.000000E+03  0.000000E+00  5.000000E+01
 1.000000E+04  0.000000E+00  5.000000E+01
 1.200000E+04  0.000000E+00  5.000000E+01
 1.400000E+04  0.000000E+00  5.000000E+01
 1.600000E+04  0.000000E+00  5.000000E+01
 1.800000E+04  0.000000E+00  5.000000E+01
 2.000000E+04  0.000000E+00  5.000000E+01
 0.000000E+00  1.000000E+00  5.000000E+01
 2.000000E+03  1.000000E+00  5.000000E+01
 4.000000E+03  1.000000E+00  5.000000E+01
 6.000000E+03  1.000000E+00  5.000000E+01
[...]
CELL_DATA      200
SCALARS Porosity             float 1
LOOKUP_TABLE default
 4.377100E-01  4.377100E-01  4.377100E-01  4.377099E-01  4.377099E-01  4.377099E-01  4.377099E-01  4.377099E-01  4.377099E-01  4.377099E-01
 4.377100E-01  4.377100E-01  4.377100E-01  4.377099E-01  4.377099E-01  4.377099E-01  4.377099E-01  4.377099E-01  4.377099E-01  4.377099E-01
 4.377100E-01  4.377100E-01  4.377100E-01  4.377099E-01  4.377099E-01  4.377099E-01  4.377099E-01  4.377099E-01  4.377099E-01  4.377099E-01
 4.377100E-01  4.377100E-01  4.377100E-01  4.377099E-01  4.377099E-01  4.377099E-01  4.377099E-01  4.377099E-01  4.377099E-01  4.377099E-01
 4.377100E-01  4.377100E-01  4.377100E-01  4.377100E-01  4.377099E-01  4.377099E-01  4.377099E-01  4.377099E-01  4.377099E-01  4.377099E-01
 4.377100E-01  4.377100E-01  4.377100E-01  4.377100E-01  4.377099E-01  4.377099E-01  4.377099E-01  4.377099E-01  4.377099E-01  4.377099E-01
 4.377098E-01  4.377100E-01  4.377100E-01  4.377100E-01  4.377099E-01  4.377099E-01  4.377099E-01  4.377099E-01  4.377099E-01  4.377099E-01
 4.377098E-01  4.377100E-01  4.377100E-01  4.377100E-01  4.377099E-01  4.377099E-01  4.377099E-01  4.377099E-01  4.377099E-01  4.377099E-01
 4.377098E-01  4.377100E-01  4.377100E-01  4.377100E-01  4.377099E-01  4.377099E-01  4.377099E-01  4.377099E-01  4.377099E-01  4.377099E-01
 4.377098E-01  4.377100E-01  4.377100E-01  4.377100E-01  4.377100E-01  4.377099E-01  4.377099E-01  4.377099E-01  4.377099E-01  4.377099E-01
 4.377098E-01  4.377100E-01  4.377100E-01  4.377100E-01  4.377100E-01  4.377099E-01  4.377099E-01  4.377099E-01  4.377099E-01  4.377099E-01
 4.377098E-01  4.377100E-01  4.377100E-01  4.377100E-01  4.377100E-01  4.377099E-01  4.377099E-01  4.377099E-01  4.377099E-01  4.377099E-01
 4.377098E-01  4.377100E-01  4.377100E-01  4.377100E-01  4.377100E-01  4.377100E-01  4.377099E-01  4.377099E-01  4.377099E-01  4.377099E-01
 4.377098E-01  4.377100E-01  4.377100E-01  4.377100E-01  4.377100E-01  4.377100E-01  4.377099E-01  4.377099E-01  4.377099E-01  4.377099E-01
 4.377100E-01  4.377100E-01  4.377100E-01  4.377100E-01  4.377100E-01  4.377100E-01  4.377100E-01  4.377099E-01  4.377099E-01  4.377099E-01
 4.377100E-01  4.377100E-01  4.377100E-01  4.377100E-01  4.377100E-01  4.377100E-01  4.377100E-01  4.377099E-01  4.377099E-01  4.377099E-01
 4.377100E-01  4.377100E-01  4.377100E-01  4.377100E-01  4.377100E-01  4.377100E-01  4.377100E-01  4.377100E-01  4.377099E-01  4.377099E-01
 4.377100E-01  4.377100E-01  4.377100E-01  4.377100E-01  4.377100E-01  4.377100E-01  4.377100E-01  4.377100E-01  4.377100E-01  4.377099E-01
 4.377100E-01  4.377100E-01  4.377100E-01  4.377100E-01  4.377100E-01  4.377100E-01  4.377100E-01  4.377100E-01  4.377100E-01  4.377100E-01
 4.377100E-01  4.377100E-01  4.377100E-01  4.377100E-01  4.377100E-01  4.377100E-01  4.377100E-01  4.377100E-01  4.377100E-01  4.377100E-01


SCALARS Permeability         float 1
LOOKUP_TABLE default
 8.829804E-13  8.829803E-13  8.829803E-13  8.829803E-13  8.829803E-13  8.829802E-13  8.829802E-13  8.829802E-13  8.829802E-13  8.829802E-13
 8.829804E-13  8.829803E-13  8.829803E-13  8.829803E-13  8.829803E-13  8.829802E-13  8.829802E-13  8.829802E-13  8.829802E-13  8.829802E-13
 8.829804E-13  8.829803E-13  8.829803E-13  8.829803E-13  8.829803E-13  8.829802E-13  8.829802E-13  8.829802E-13  8.829802E-13  8.829802E-13
 8.829804E-13  8.829803E-13  8.829803E-13  8.829803E-13  8.829803E-13  8.829803E-13  8.829802E-13  8.829802E-13  8.829802E-13  8.829802E-13
 8.829804E-13  8.829803E-13  8.829803E-13  8.829803E-13  8.829803E-13  8.829803E-13  8.829802E-13  8.829802E-13  8.829802E-13  8.829802E-13
 8.829804E-13  8.829803E-13  8.829803E-13  8.829803E-13  8.829803E-13  8.829803E-13  8.829803E-13  8.829802E-13  8.829802E-13  8.829802E-13
 8.829794E-13  8.829803E-13  8.829803E-13  8.829803E-13  8.829803E-13  8.829803E-13  8.829803E-13  8.829802E-13  8.829802E-13  8.829802E-13
 8.829794E-13  8.829803E-13  8.829803E-13  8.829803E-13  8.829803E-13  8.829803E-13  8.829803E-13  8.829803E-13  8.829802E-13  8.829802E-13
 8.829795E-13  8.829804E-13  8.829803E-13  8.829803E-13  8.829803E-13  8.829803E-13  8.829803E-13  8.829803E-13  8.829803E-13  8.829802E-13
 8.829795E-13  8.829804E-13  8.829803E-13  8.829803E-13  8.829803E-13  8.829803E-13  8.829803E-13  8.829803E-13  8.829803E-13  8.829803E-13
 8.829795E-13  8.829804E-13  8.829803E-13  8.829803E-13  8.829803E-13  8.829803E-13  8.829803E-13  8.829803E-13  8.829803E-13  8.829803E-13
 8.829795E-13  8.829804E-13  8.829803E-13  8.829803E-13  8.829803E-13  8.829803E-13  8.829803E-13  8.829803E-13  8.829803E-13  8.829803E-13
 8.829795E-13  8.829804E-13  8.829803E-13  8.829803E-13  8.829803E-13  8.829803E-13  8.829803E-13  8.829803E-13  8.829803E-13  8.829803E-13
 8.829795E-13  8.829804E-13  8.829803E-13  8.829803E-13  8.829803E-13  8.829803E-13  8.829803E-13  8.829803E-13  8.829803E-13  8.829803E-13
 8.829804E-13  8.829804E-13  8.829803E-13  8.829803E-13  8.829803E-13  8.829803E-13  8.829803E-13  8.829803E-13  8.829803E-13  8.829803E-13
 8.829805E-13  8.829804E-13  8.829803E-13  8.829803E-13  8.829803E-13  8.829803E-13  8.829803E-13  8.829803E-13  8.829803E-13  8.829803E-13
 8.829805E-13  8.829804E-13  8.829803E-13  8.829803E-13  8.829803E-13  8.829803E-13  8.829803E-13  8.829803E-13  8.829803E-13  8.829803E-13
 8.829805E-13  8.829804E-13  8.829803E-13  8.829803E-13  8.829803E-13  8.829803E-13  8.829803E-13  8.829803E-13  8.829803E-13  8.829803E-13
 8.829805E-13  8.829804E-13  8.829803E-13  8.829803E-13  8.829803E-13  8.829803E-13  8.829803E-13  8.829803E-13  8.829803E-13  8.829803E-13
 8.829805E-13  8.829804E-13  8.829803E-13  8.829803E-13  8.829803E-13  8.829803E-13  8.829803E-13  8.829803E-13  8.829803E-13  8.829803E-13


SCALARS Liquid_Pressure      float 1
LOOKUP_TABLE default
 8.323335E+06  7.951705E+06  7.779294E+06  7.677355E+06  7.611966E+06  7.568197E+06  7.537732E+06  7.515446E+06  7.498120E+06  7.483754E+06
 8.278167E+06  7.906542E+06  7.734135E+06  7.632199E+06  7.566811E+06  7.523044E+06  7.492579E+06  7.470294E+06  7.452968E+06  7.438602E+06
 8.233005E+06  7.861380E+06  7.688978E+06  7.587044E+06  7.521658E+06  7.477892E+06  7.447428E+06  7.425144E+06  7.407818E+06  7.393452E+06
 8.187850E+06  7.816219E+06  7.643822E+06  7.541890E+06  7.476506E+06  7.432741E+06  7.402278E+06  7.379994E+06  7.362669E+06  7.348304E+06
 8.142700E+06  7.771060E+06  7.598667E+06  7.496738E+06  7.431355E+06  7.387591E+06  7.357129E+06  7.334846E+06  7.317521E+06  7.303156E+06
 8.097557E+06  7.725902E+06  7.553513E+06  7.451587E+06  7.386206E+06  7.342443E+06  7.311981E+06  7.289699E+06  7.272374E+06  7.258010E+06
 8.052419E+06  7.680745E+06  7.508361E+06  7.406437E+06  7.341058E+06  7.297296E+06  7.266835E+06  7.244553E+06  7.227229E+06  7.212865E+06
 8.007276E+06  7.635590E+06  7.463210E+06  7.361289E+06  7.295911E+06  7.252150E+06  7.221690E+06  7.199409E+06  7.182085E+06  7.167721E+06
 7.962126E+06  7.590436E+06  7.418060E+06  7.316141E+06  7.250765E+06  7.207006E+06  7.176546E+06  7.154265E+06  7.136942E+06  7.122579E+06
 7.916971E+06  7.545283E+06  7.372911E+06  7.270995E+06  7.205621E+06  7.161862E+06  7.131404E+06  7.109123E+06  7.091801E+06  7.077438E+06
 7.871810E+06  7.500131E+06  7.327764E+06  7.225850E+06  7.160478E+06  7.116720E+06  7.086262E+06  7.063983E+06  7.046660E+06  7.032298E+06
 7.826643E+06  7.454981E+06  7.282618E+06  7.180707E+06  7.115336E+06  7.071579E+06  7.041122E+06  7.018843E+06  7.001521E+06  6.987159E+06
 7.781470E+06  7.409831E+06  7.237473E+06  7.135565E+06  7.070195E+06  7.026440E+06  6.995984E+06  6.973705E+06  6.956384E+06  6.942022E+06
 7.736292E+06  7.364683E+06  7.192329E+06  7.090424E+06  7.025056E+06  6.981302E+06  6.950846E+06  6.928568E+06  6.911247E+06  6.896886E+06
 7.691107E+06  7.319537E+06  7.147187E+06  7.045284E+06  6.979918E+06  6.936165E+06  6.905710E+06  6.883433E+06  6.866112E+06  6.851751E+06
 7.645928E+06  7.274391E+06  7.102046E+06  7.000145E+06  6.934781E+06  6.891029E+06  6.860575E+06  6.838298E+06  6.820978E+06  6.806617E+06
 7.600756E+06  7.229247E+06  7.056906E+06  6.955008E+06  6.889645E+06  6.845895E+06  6.815441E+06  6.793165E+06  6.775845E+06  6.761485E+06
 7.555589E+06  7.184104E+06  7.011768E+06  6.909872E+06  6.844511E+06  6.800761E+06  6.770309E+06  6.748033E+06  6.730714E+06  6.716354E+06
 7.510429E+06  7.138963E+06  6.966630E+06  6.864738E+06  6.799378E+06  6.755629E+06  6.725178E+06  6.702903E+06  6.685584E+06  6.671224E+06
 7.465274E+06  7.093822E+06  6.921494E+06  6.819604E+06  6.754246E+06  6.710499E+06  6.680048E+06  6.657773E+06  6.640455E+06  6.626095E+06


SCALARS Temperature          float 1
LOOKUP_TABLE default
 1.500482E+02  1.500262E+02  1.500160E+02  1.500100E+02  1.500061E+02  1.500035E+02  1.500017E+02  1.500004E+02  1.499994E+02  1.499985E+02
 1.500481E+02  1.500263E+02  1.500160E+02  1.500100E+02  1.500061E+02  1.500035E+02  1.500017E+02  1.500004E+02  1.499994E+02  1.499985E+02
 1.500481E+02  1.500263E+02  1.500160E+02  1.500100E+02  1.500061E+02  1.500035E+02  1.500017E+02  1.500004E+02  1.499994E+02  1.499985E+02
 1.500481E+02  1.500263E+02  1.500160E+02  1.500100E+02  1.500061E+02  1.500035E+02  1.500017E+02  1.500004E+02  1.499994E+02  1.499985E+02
 1.500481E+02  1.500263E+02  1.500160E+02  1.500100E+02  1.500061E+02  1.500035E+02  1.500017E+02  1.500004E+02  1.499994E+02  1.499985E+02
 1.500481E+02  1.500263E+02  1.500160E+02  1.500100E+02  1.500061E+02  1.500035E+02  1.500017E+02  1.500004E+02  1.499994E+02  1.499985E+02
 1.500479E+02  1.500263E+02  1.500160E+02  1.500100E+02  1.500061E+02  1.500035E+02  1.500017E+02  1.500004E+02  1.499994E+02  1.499985E+02
 1.500480E+02  1.500263E+02  1.500160E+02  1.500100E+02  1.500061E+02  1.500035E+02  1.500017E+02  1.500004E+02  1.499994E+02  1.499985E+02
 1.500480E+02  1.500263E+02  1.500160E+02  1.500100E+02  1.500061E+02  1.500035E+02  1.500017E+02  1.500004E+02  1.499994E+02  1.499985E+02
 1.500480E+02  1.500263E+02  1.500160E+02  1.500100E+02  1.500061E+02  1.500035E+02  1.500017E+02  1.500004E+02  1.499994E+02  1.499985E+02
 1.500480E+02  1.500263E+02  1.500160E+02  1.500100E+02  1.500061E+02  1.500035E+02  1.500017E+02  1.500004E+02  1.499994E+02  1.499985E+02
 1.500480E+02  1.500263E+02  1.500160E+02  1.500100E+02  1.500061E+02  1.500035E+02  1.500017E+02  1.500004E+02  1.499994E+02  1.499985E+02
 1.500481E+02  1.500263E+02  1.500160E+02  1.500100E+02  1.500061E+02  1.500035E+02  1.500017E+02  1.500004E+02  1.499994E+02  1.499985E+02
 1.500481E+02  1.500263E+02  1.500160E+02  1.500100E+02  1.500061E+02  1.500035E+02  1.500017E+02  1.500004E+02  1.499994E+02  1.499985E+02
 1.500483E+02  1.500263E+02  1.500161E+02  1.500100E+02  1.500061E+02  1.500035E+02  1.500017E+02  1.500004E+02  1.499994E+02  1.499985E+02
 1.500483E+02  1.500263E+02  1.500161E+02  1.500100E+02  1.500061E+02  1.500035E+02  1.500017E+02  1.500004E+02  1.499994E+02  1.499985E+02
 1.500483E+02  1.500263E+02  1.500161E+02  1.500100E+02  1.500061E+02  1.500035E+02  1.500017E+02  1.500004E+02  1.499994E+02  1.499985E+02
 1.500483E+02  1.500263E+02  1.500161E+02  1.500100E+02  1.500061E+02  1.500035E+02  1.500017E+02  1.500004E+02  1.499994E+02  1.499985E+02
 1.500483E+02  1.500263E+02  1.500161E+02  1.500100E+02  1.500061E+02  1.500035E+02  1.500017E+02  1.500004E+02  1.499994E+02  1.499985E+02
 1.500483E+02  1.500263E+02  1.500161E+02  1.500100E+02  1.500061E+02  1.500035E+02  1.500017E+02  1.500004E+02  1.499994E+02  1.499985E+02


SCALARS pH                   float 1
LOOKUP_TABLE default
 6.144438E+00  6.144406E+00  6.144390E+00  6.144381E+00  6.144376E+00  6.144372E+00  6.144369E+00  6.144367E+00  6.144366E+00  6.144364E+00
 6.144438E+00  6.144406E+00  6.144390E+00  6.144381E+00  6.144376E+00  6.144372E+00  6.144369E+00  6.144367E+00  6.144366E+00  6.144364E+00
 6.144438E+00  6.144406E+00  6.144390E+00  6.144381E+00  6.144376E+00  6.144372E+00  6.144369E+00  6.144367E+00  6.144366E+00  6.144364E+00
 6.144438E+00  6.144406E+00  6.144390E+00  6.144381E+00  6.144376E+00  6.144372E+00  6.144369E+00  6.144367E+00  6.144366E+00  6.144364E+00
 6.144438E+00  6.144406E+00  6.144390E+00  6.144381E+00  6.144376E+00  6.144372E+00  6.144369E+00  6.144367E+00  6.144366E+00  6.144364E+00
 6.144438E+00  6.144406E+00  6.144390E+00  6.144381E+00  6.144376E+00  6.144372E+00  6.144369E+00  6.144367E+00  6.144366E+00  6.144364E+00
 6.144445E+00  6.144406E+00  6.144390E+00  6.144381E+00  6.144376E+00  6.144372E+00  6.144369E+00  6.144367E+00  6.144366E+00  6.144364E+00
 6.144445E+00  6.144406E+00  6.144390E+00  6.144381E+00  6.144376E+00  6.144372E+00  6.144369E+00  6.144367E+00  6.144366E+00  6.144364E+00
 6.144445E+00  6.144406E+00  6.144390E+00  6.144382E+00  6.144376E+00  6.144372E+00  6.144369E+00  6.144367E+00  6.144366E+00  6.144364E+00
 6.144445E+00  6.144406E+00  6.144390E+00  6.144382E+00  6.144376E+00  6.144372E+00  6.144369E+00  6.144367E+00  6.144366E+00  6.144364E+00
 6.144445E+00  6.144406E+00  6.144390E+00  6.144382E+00  6.144376E+00  6.144372E+00  6.144369E+00  6.144367E+00  6.144366E+00  6.144364E+00
 6.144445E+00  6.144406E+00  6.144391E+00  6.144382E+00  6.144376E+00  6.144372E+00  6.144369E+00  6.144367E+00  6.144366E+00  6.144364E+00
 6.144445E+00  6.144406E+00  6.144391E+00  6.144382E+00  6.144376E+00  6.144372E+00  6.144369E+00  6.144367E+00  6.144366E+00  6.144364E+00
 6.144445E+00  6.144406E+00  6.144391E+00  6.144382E+00  6.144376E+00  6.144372E+00  6.144369E+00  6.144367E+00  6.144366E+00  6.144364E+00
 6.144438E+00  6.144406E+00  6.144391E+00  6.144382E+00  6.144376E+00  6.144372E+00  6.144369E+00  6.144367E+00  6.144366E+00  6.144365E+00
 6.144438E+00  6.144406E+00  6.144391E+00  6.144382E+00  6.144376E+00  6.144372E+00  6.144369E+00  6.144367E+00  6.144366E+00  6.144365E+00
 6.144438E+00  6.144406E+00  6.144391E+00  6.144382E+00  6.144376E+00  6.144372E+00  6.144369E+00  6.144367E+00  6.144366E+00  6.144365E+00
 6.144438E+00  6.144406E+00  6.144391E+00  6.144382E+00  6.144376E+00  6.144372E+00  6.144369E+00  6.144367E+00  6.144366E+00  6.144365E+00
 6.144438E+00  6.144406E+00  6.144391E+00  6.144382E+00  6.144376E+00  6.144372E+00  6.144369E+00  6.144367E+00  6.144366E+00  6.144365E+00
 6.144438E+00  6.144406E+00  6.144391E+00  6.144382E+00  6.144376E+00  6.144372E+00  6.144369E+00  6.144367E+00  6.144366E+00  6.144365E+00


SCALARS Total_H+             float 1
LOOKUP_TABLE default
-3.039570E-03 -3.040320E-03 -3.040673E-03 -3.040883E-03 -3.041018E-03 -3.041108E-03 -3.041172E-03 -3.041218E-03 -3.041253E-03 -3.041282E-03
-3.039569E-03 -3.040320E-03 -3.040672E-03 -3.040882E-03 -3.041017E-03 -3.041108E-03 -3.041171E-03 -3.041217E-03 -3.041252E-03 -3.041281E-03
-3.039569E-03 -3.040319E-03 -3.040672E-03 -3.040881E-03 -3.041017E-03 -3.041107E-03 -3.041170E-03 -3.041216E-03 -3.041252E-03 -3.041281E-03
-3.039569E-03 -3.040318E-03 -3.040671E-03 -3.040881E-03 -3.041016E-03 -3.041107E-03 -3.041170E-03 -3.041216E-03 -3.041251E-03 -3.041280E-03
-3.039568E-03 -3.040318E-03 -3.040671E-03 -3.040880E-03 -3.041015E-03 -3.041106E-03 -3.041169E-03 -3.041215E-03 -3.041251E-03 -3.041280E-03
-3.039568E-03 -3.040317E-03 -3.040670E-03 -3.040880E-03 -3.041015E-03 -3.041106E-03 -3.041169E-03 -3.041215E-03 -3.041250E-03 -3.041279E-03
-3.039576E-03 -3.040316E-03 -3.040669E-03 -3.040879E-03 -3.041014E-03 -3.041105E-03 -3.041168E-03 -3.041214E-03 -3.041250E-03 -3.041278E-03
-3.039575E-03 -3.040316E-03 -3.040669E-03 -3.040878E-03 -3.041014E-03 -3.041104E-03 -3.041168E-03 -3.041214E-03 -3.041249E-03 -3.041278E-03
-3.039574E-03 -3.040315E-03 -3.040668E-03 -3.040878E-03 -3.041013E-03 -3.041104E-03 -3.041167E-03 -3.041213E-03 -3.041248E-03 -3.041277E-03
-3.039573E-03 -3.040314E-03 -3.040667E-03 -3.040877E-03 -3.041012E-03 -3.041103E-03 -3.041166E-03 -3.041213E-03 -3.041248E-03 -3.041277E-03
-3.039572E-03 -3.040314E-03 -3.040667E-03 -3.040877E-03 -3.041012E-03 -3.041103E-03 -3.041166E-03 -3.041212E-03 -3.041247E-03 -3.041276E-03
-3.039571E-03 -3.040313E-03 -3.040666E-03 -3.040876E-03 -3.041011E-03 -3.041102E-03 -3.041165E-03 -3.041211E-03 -3.041247E-03 -3.041276E-03
-3.039570E-03 -3.040312E-03 -3.040666E-03 -3.040875E-03 -3.041011E-03 -3.041102E-03 -3.041165E-03 -3.041211E-03 -3.041246E-03 -3.041275E-03
-3.039569E-03 -3.040312E-03 -3.040665E-03 -3.040875E-03 -3.041010E-03 -3.041101E-03 -3.041164E-03 -3.041210E-03 -3.041246E-03 -3.041275E-03
-3.039555E-03 -3.040311E-03 -3.040664E-03 -3.040874E-03 -3.041010E-03 -3.041100E-03 -3.041164E-03 -3.041210E-03 -3.041245E-03 -3.041274E-03
-3.039555E-03 -3.040310E-03 -3.040664E-03 -3.040874E-03 -3.041009E-03 -3.041100E-03 -3.041163E-03 -3.041209E-03 -3.041245E-03 -3.041273E-03
-3.039555E-03 -3.040310E-03 -3.040663E-03 -3.040873E-03 -3.041008E-03 -3.041099E-03 -3.041163E-03 -3.041209E-03 -3.041244E-03 -3.041273E-03
-3.039555E-03 -3.040309E-03 -3.040662E-03 -3.040872E-03 -3.041008E-03 -3.041099E-03 -3.041162E-03 -3.041208E-03 -3.041243E-03 -3.041272E-03
-3.039554E-03 -3.040308E-03 -3.040662E-03 -3.040872E-03 -3.041007E-03 -3.041098E-03 -3.041161E-03 -3.041207E-03 -3.041243E-03 -3.041272E-03
-3.039554E-03 -3.040308E-03 -3.040661E-03 -3.040871E-03 -3.041007E-03 -3.041098E-03 -3.041161E-03 -3.041207E-03 -3.041242E-03 -3.041271E-03


SCALARS Total_SiO2(aq)       float 1
LOOKUP_TABLE default
 1.039619E-02  1.039431E-02  1.039343E-02  1.039291E-02  1.039258E-02  1.039236E-02  1.039220E-02  1.039209E-02  1.039200E-02  1.039193E-02
 1.039619E-02  1.039431E-02  1.039343E-02  1.039291E-02  1.039258E-02  1.039236E-02  1.039220E-02  1.039209E-02  1.039200E-02  1.039193E-02
 1.039619E-02  1.039431E-02  1.039343E-02  1.039291E-02  1.039258E-02  1.039236E-02  1.039220E-02  1.039209E-02  1.039200E-02  1.039193E-02
 1.039619E-02  1.039431E-02  1.039343E-02  1.039291E-02  1.039258E-02  1.039236E-02  1.039220E-02  1.039209E-02  1.039200E-02  1.039193E-02
 1.039619E-02  1.039431E-02  1.039343E-02  1.039291E-02  1.039258E-02  1.039236E-02  1.039220E-02  1.039209E-02  1.039200E-02  1.039193E-02
 1.039618E-02  1.039431E-02  1.039343E-02  1.039291E-02  1.039258E-02  1.039236E-02  1.039220E-02  1.039209E-02  1.039200E-02  1.039193E-02
 1.039640E-02  1.039431E-02  1.039343E-02  1.039291E-02  1.039258E-02  1.039236E-02  1.039220E-02  1.039209E-02  1.039200E-02  1.039193E-02
 1.039640E-02  1.039431E-02  1.039343E-02  1.039291E-02  1.039258E-02  1.039236E-02  1.039220E-02  1.039209E-02  1.039200E-02  1.039193E-02
 1.039640E-02  1.039431E-02  1.039343E-02  1.039291E-02  1.039258E-02  1.039236E-02  1.039220E-02  1.039209E-02  1.039200E-02  1.039193E-02
 1.039641E-02  1.039431E-02  1.039343E-02  1.039291E-02  1.039258E-02  1.039236E-02  1.039220E-02  1.039209E-02  1.039200E-02  1.039193E-02
 1.039641E-02  1.039431E-02  1.039343E-02  1.039291E-02  1.039258E-02  1.039236E-02  1.039220E-02  1.039209E-02  1.039200E-02  1.039193E-02
 1.039641E-02  1.039431E-02  1.039343E-02  1.039291E-02  1.039258E-02  1.039236E-02  1.039220E-02  1.039209E-02  1.039200E-02  1.039193E-02
 1.039641E-02  1.039431E-02  1.039343E-02  1.039291E-02  1.039258E-02  1.039236E-02  1.039220E-02  1.039209E-02  1.039200E-02  1.039193E-02
 1.039641E-02  1.039431E-02  1.039343E-02  1.039291E-02  1.039258E-02  1.039236E-02  1.039220E-02  1.039209E-02  1.039200E-02  1.039193E-02
 1.039620E-02  1.039431E-02  1.039343E-02  1.039291E-02  1.039258E-02  1.039236E-02  1.039220E-02  1.039209E-02  1.039200E-02  1.039193E-02
 1.039620E-02  1.039431E-02  1.039343E-02  1.039291E-02  1.039258E-02  1.039236E-02  1.039220E-02  1.039209E-02  1.039200E-02  1.039193E-02
 1.039620E-02  1.039431E-02  1.039343E-02  1.039291E-02  1.039258E-02  1.039236E-02  1.039220E-02  1.039209E-02  1.039200E-02  1.039193E-02
 1.039620E-02  1.039431E-02  1.039343E-02  1.039291E-02  1.039258E-02  1.039236E-02  1.039220E-02  1.039209E-02  1.039200E-02  1.039193E-02
 1.039620E-02  1.039431E-02  1.039343E-02  1.039291E-02  1.039258E-02  1.039236E-02  1.039220E-02  1.039209E-02  1.039200E-02  1.039193E-02