# vtk DataFile Version 2.0
PFLOTRAN output
ASCII
DATASET UNSTRUCTURED_GRID
POINTS          462 float
 0.000000E+00  0.000000E+00  0.000000E+00
 2.000000E+03  0.000000E+00  0.000000E+00
 4.000000E+03  0.000000E+00  0.000000E+00
 6.000000E+03  0.000000E+00  0.000000E+00
 8.000000E+03  0.000000E+00  0.000000E+00
 1.000000E+04  0.000000E+00  0.000000E+00
 1.200000E+04  0.000000E+00  0.000000E+00
 1.400000E+04  0.000000E+00  0.000000E+00
 1.600000E+04  0.000000E+00  0.000000E+00
 1.800000E+04  0.000000E+00  0.000000E+00
 2.000000E+04  0.000000E+00  0.000000E+00
 0.000000E+00  1.000000E+00  0.000000E+00
 2.000000E+03  1.000000E+00  0.000000E+00
 4.000000E+03  1.000000E+00  0.000000E+00
 6.000000E+03  1.000000E+00  0.000000E+00
 8.000000E+03  1.000000E+00  0.000000E+00
 1.000000E+04  1.000000E+00  0.000000E+00
 1.200000E+04  1.000000E+00  0.000000E+00
 1.400000E+04  1.000000E+00  0.000000E+00
 1.600000E+04  1.000000E+00  0.000000E+00
 1.800000E+04  1.000000E+00  0.000000E+00
 2.000000E+04  1.000000E+00  0.000000E+00
 0.000000E+00  0.000000E+00  5.000000E+00
 2.000000E+03  0.000000E+00  5.000000E+00
 4.000000E+03  0.000000E+00  5.000000E+00
 6.000000E+03  0.000000E+00  5.000000E+00
 8.000000E+03  0.000000E+00  5.000000E+00
 1.000000E+04  0.000000E+00  5.000000E+00
 1.200000E+04  0.000000E+00  5.000000E+00
 1.400000E+04  0.000000E+00  5.000000E+00
 1.600000E+04  0.000000E+00  5.000000E+00
 1.800000E+04  0.000000E+00  5.000000E+00
 2.000000E+04  0.000000E+00  5.000000E+00
 0.000000E+00  1.000000E+00  5.000000E+00
 2.000000E+03  1.000000E+00  5.000000E+00
 4.000000E+03  1.000000E+00  5.000000E+00
 6.000000E+03  1.000000E+00  5.000000E+00
 8.000000E+03  1.000000E+00  5.000000E+00
 1.000000E+04  1.000000E+00  5.000000E+00
 1.200000E+04  1.000000E+00  5.000000E+00
 1.400000E+04  1.000000E+00  5.000000E+00
 1.600000E+04  1.000000E+00  5.000000E+00
 1.800000E+04  1.000000E+00  5.000000E+00
 2.000000E+04  1.000000E+00  5.000000E+00
 0.000000E+00  0.000000E+00  1.000000E+01
 2.000000E+03  0.000000E+00  1.000000E+01
 4.000000E+03  0.000000E+00  1.000000E+01
 6.000000E+03  0.000000E+00  1.000000E+01
 8.000000E+03  0.000000E+00  1.000000E+01
 1.000000E+04  0.000000E+00  1.000000E+01
 1.200000E+04  0.000000E+00  1.000000E+01
 1.400000E+04  0.000000E+00  1.000000E+01
 1.600000E+04  0.000000E+00  1.000000E+01
 1.800000E+04  0.000000E+00  1.000000E+01
 2.000000E+04  0.000000E+00  1.000000E+01
 0.000000E+00  1.000000E+00  1.000000E+01
 2.000000E+03  1.000000E+00  1.000000E+01
 4.000000E+03  1.000000E+00  1.000000E+01
 6.000000E+03  1.000000E+00  1.000000E+01
 8.000000E+03  1.000000E+00  1.000000E+01
 1.000000E+04  1.000000E+00  1.000000E+01
 1.200000E+04  1.000000E+00  1.000000E+01
 1.400000E+04  1.000000E+00  1.000000E+01
 1.600000E+04  1.000000E+00  1.000000E+01
 1.800000E+04  1.000000E+00  1.000000E+01
 2.000000E+04  1.000000E+00  1.000000E+01
 0.000000E+00  0.000000E+00  1.500000E+01
 2.000000E+03  0.000000E+00  1.500000E+01
 4.000000E+03  0.000000E+00  1.500000E+01
 6.000000E+03  0.000000E+00  1.500000E+01
 8.000000E+03  0.000000E+00  1.500000E+01
 1.000000E+04  0.000000E+00  1.500000E+01
 1.200000E+04  0.000000E+00  1.500000E+01
 1.400000E+04  0.000000E+00  1.500000E+01
 1.600000E+04  0.000000E+00  1.500000E+01
 1.800000E+04  0.000000E+00  1.500000E+01
 2.000000E+04  0.000000E+00  1.500000E+01
 0.000000E+00  1.000000E+00  1.500000E+01
 2.000000E+03  1.000000E+00  1.500000E+01
 4.000000E+03  1.000000E+00  1.500000E+01
 6.000000E+03  1.000000E+00  1.500000E+01
 8.000000E+03  1.000000E+00  1.500000E+01
 1.000000E+04  1.000000E+00  1.500000E+01
 1.200000E+04  1.000000E+00  1.500000E+01
 1.400000E+04  1.000000E+00  1.500000E+01
 1.600000E+04  1.000000E+00  1.500000E+01
 1.800000E+04  1.000000E+00  1.500000E+01
 2.000000E+04  1.000000E+00  1.500000E+01
 0.000000E+00  0.000000E+00  2.000000E+01
 2.000000E+03  0.000000E+00  2.000000E+01
 4.000000E+03  0.000000E+00  2.000000E+01
 6.000000E+03  0.000000E+00  2.000000E+01
 8.000000E+03  0.000000E+00  2.000000E+01
 1.000000E+04  0.000000E+00  2.000000E+01
 1.200000E+04  0.000000E+00  2.000000E+01
 1.400000E+04  0.000000E+00  2.000000E+01
 1.600000E+04  0.000000E+00  2.000000E+01
 1.800000E+04  0.000000E+00  2.000000E+01
 2.000000E+04  0.000000E+00  2.000000E+01
 0.000000E+00  1.000000E+00  2.000000E+01
 2.000000E+03  1.000000E+00  2.000000E+01
 4.000000E+03  1.000000E+00  2.000000E+01
 6.000000E+03  1.000000E+00  2.000000E+01
 8.000000E+03  1.000000E+00  2.000000E+01
 1.000000E+04  1.000000E+00  2.000000E+01
 1.200000E+04  1.000000E+00  2.000000E+01
 1.400000E+04  1.000000E+00  2.000000E+01
 1.600000E+04  1.000000E+00  2.000000E+01
 1.800000E+04  1.000000E+00  2.000000E+01
 2.000000E+04  1.000000E+00  2.000000E+01
 0.000000E+00  0.000000E+00  2.500000E+01
 2.000000E+03  0.000000E+00  2.500000E+01
 4.000000E+03  0.000000E+00  2.500000E+01
 6.000000E+03  0.000000E+00  2.500000E+01
 8.000000E+03  0.000000E+00  2.500000E+01
 1.000000E+04  0.000000E+00  2.500000E+01
 1.200000E+04  0.000000E+00  2.500000E+01
 1.400000E+04  0.000000E+00  2.500000E+01
 1.600000E+04  0.000000E+00  2.500000E+01
 1.800000E+04  0.000000E+00  2.500000E+01
 2.000000E+04  0.000000E+00  2.500000E+01
 0.000000E+00  1.000000E+00  2.500000E+01
 2.000000E+03  1.000000E+00  2.500000E+01
 4.000000E+03  1.000000E+00  2.500000E+01
 6.000000E+03  1.000000E+00  2.500000E+01
 8.000000E+03  1.000000E+00  2.500000E+01
 1.000000E+04  1.000000E+00  2.500000E+01
 1.200000E+04  1.000000E+00  2.500000E+01
 1.400000E+04  1.000000E+00  2.500000E+01
 1.600000E+04  1.000000E+00  2.500000E+01
 1.800000E+04  1.000000E+00  2.500000E+01
 2.000000E+04  1.000000E+00  2.500000E+01
 0.000000E+00  0.000000E+00  3.000000E+01
 2.000000E+03  0.000000E+00  3.000000E+01
 4.000000E+03  0.000000E+00  3.000000E+01
 6.000000E+03  0.000000E+00  3.000000E+01
 8.000000E+03  0.000000E+00  3.000000E+01
 1.000000E+04  0.000000E+00  3.000000E+01
 1.200000E+04  0.000000E+00  3.000000E+01
 1.400000E+04  0.000000E+00  3.000000E+01
 1.600000E+04  0.000000E+00  3.000000E+01
 1.800000E+04  0.000000E+00  3.000000E+01
 2.000000E+04  0.000000E+00  3.000000E+01
 0.000000E+00  1.000000E+00  3.000000E+01
 2.000000E+03  1.000000E+00  3.000000E+01
 4.000000E+03  1.000000E+00  3.000000E+01
 6.000000E+03  1.000000E+00  3.000000E+01
 8.000000E+03  1.000000E+00  3.000000E+01
 1.000000E+04  1.000000E+00  3.000000E+01
 1.200000E+04  1.000000E+00  3.000000E+01
 1.400000E+04  1.000000E+00  3.000000E+01
 1.600000E+04  1.000000E+00  3.000000E+01
 1.800000E+04  1.000000E+00  3.000000E+01
 2.000000E+04  1.000000E+00  3.000000E+01
 0.000000E+00  0.000000E+00  3.500000E+01
 2.000000E+03  0.000000E+00  3.500000E+01
 4.000000E+03  0.000000E+00  3.500000E+01
 6.000000E+03  0.000000E+00  3.500000E+01
 8.000000E+03  0.000000E+00  3.500000E+01
 1.000000E+04  0.000000E+00  3.500000E+01
 1.200000E+04  0.000000E+00  3.500000E+01
 1.400000E+04  0.000000E+00  3.500000E+01
 1.600000E+04  0.000000E+00  3.500000E+01
 1.800000E+04  0.000000E+00  3.500000E+01
 2.000000E+04  0.000000E+00  3.500000E+01
 0.000000E+00  1.000000E+00  3.500000E+01
 2.000000E+03  1.000000E+00  3.500000E+01
 4.000000E+03  1.000000E+00  3.500000E+01
 6.000000E+03  1.000000E+00  3.500000E+01
 8.000000E+03  1.000000E+00  3.500000E+01
 1.000000E+04  1.000000E+00  3.500000E+01
 1.200000E+04  1.000000E+00  3.500000E+01
 1.400000E+04  1.000000E+00  3.500000E+01
 1.600000E+04  1.000000E+00  3.500000E+01
 1.800000E+04  1.000000E+00  3.500000E+01
 2.000000E+04  1.000000E+00  3.500000E+01
 0.000000E+00  0.000000E+00  4.000000E+01
 2.000000E+03  0.000000E+00  4.000000E+01
 4.000000E+03  0.000000E+00  4.000000E+01
 6.000000E+03  0.000000E+00  4.000000E+01
 8.000000E+03  0.000000E+00  4.000000E+01
 1.000000E+04  0.000000E+00  4.000000E+01
 1.200000E+04  0.000000E+00  4.000000E+01
 1.400000E+04  0.000000E+00  4.000000E+01
 1.600000E+04  0.000000E+00  4.000000E+01
 1.800000E+04  0.000000E+00  4.000000E+01
 2.000000E+04  0.000000E+00  4.000000E+01
 0.000000E+00  1.000000E+00  4.000000E+01
 2.000000E+03  1.000000E+00  4.000000E+01
 4.000000E+03  1.000000E+00  4.000000E+01
 6.000000E+03  1.000000E+00  4.000000E+01
 8.000000E+03  1.000000E+00  4.000000E+01
 1.000000E+04  1.000000E+00  4.000000E+01
 1.200000E+04  1.000000E+00  4.000000E+01
 1.400000E+04  1.000000E+00  4.000000E+01
 1.600000E+04  1.000000E+00  4.000000E+01
 1.800000E+04  1.000000E+00  4.000000E+01
 2.000000E+04  1.000000E+00  4.000000E+01
 0.000000E+00  0.000000E+00  4.500000E+01
 2.000000E+03  0.000000E+00  4.500000E+01
 4.000000E+03  0.000000E+00  4.500000E+01
 6.000000E+03  0.000000E+00  4.500000E+01
 8.000000E+03  0.000000E+00  4.500000E+01
 1.000000E+04  0.000000E+00  4.500000E+01
 1.200000E+04  0.000000E+00  4.500000E+01
 1.400000E+04  0.000000E+00  4.500000E+01
 1.600000E+04  0.000000E+00  4.500000E+01
 1.800000E+04  0.000000E+00  4.500000E+01
 2.000000E+04  0.000000E+00  4.500000E+01
 0.000000E+00  1.000000E+00  4.500000E+01
 2.000000E+03  1.000000E+00  4.500000E+01
 4.000000E+03  1.000000E+00  4.500000E+01
 6.000000E+03  1.000000E+00  4.500000E+01
 8.000000E+03  1.000000E+00  4.500000E+01
 1.000000E+04  1.000000E+00  4.500000E+01
 1.200000E+04  1.000000E+00  4.500000E+01
 1.400000E+04  1.000000E+00  4.500000E+01
 1.600000E+04  1.000000E+00  4.500000E+01
 1.800000E+04  1.000000E+00  4.500000E+01
 2.000000E+04  1.000000E+00  4.500000E+01
 0.000000E+00  0.000000E+00  5.000000E+01
 2.000000E+03  0.000000E+00  5.000000E+01
 4.000000E+03  0.000000E+00  5.000000E+01
 6.000000E+03  0.000000E+00  5.000000E+01
 8.000000E+03  0.000000E+00  5.000000E+01
 1.000000E+04  0.000000E+00  5.000000E+01
 1.200000E+04  0.000000E+00  5.000000E+01
 1.400000E+04  0.000000E+00  5.000000E+01
 1.600000E+04  0.000000E+00  5.000000E+01
 1.800000E+04  0.000000E+00  5.000000E+01
 2.000000E+04  0.000000E+00  5.000000E+01
 0.000000E+00  1.000000E+00  5.000000E+01
 2.000000E+03  1.000000E+00  5.000000E+01
 4.000000E+03  1.000000E+00  5.000000E+01
 6.000000E+03  1.000000E+00  5.000000E+01
[...]
CELL_DATA      200
SCALARS Porosity             float 1
LOOKUP_TABLE default
 4.377100E-01  4.377100E-01  4.377100E-01  4.377100E-01  4.377100E-01  4.377100E-01  4.377100E-01  4.377100E-01  4.377100E-01  4.377100E-01
 4.377100E-01  4.377100E-01  4.377100E-01  4.377100E-01  4.377100E-01  4.377100E-01  4.377100E-01  4.377100E-01  4.377100E-01  4.377100E-01
 4.377100E-01  4.377100E-01  4.377100E-01  4.377100E-01  4.377100E-01  4.377100E-01  4.377100E-01  4.377100E-01  4.377100E-01  4.377100E-01
 4.377100E-01  4.377100E-01  4.377100E-01  4.377100E-01  4.377100E-01  4.377100E-01  4.377100E-01  4.377100E-01  4.377100E-01  4.377100E-01
 4.377100E-01  4.377100E-01  4.377100E-01  4.377100E-01  4.377100E-01  4.377100E-01  4.377100E-01  4.377100E-01  4.377100E-01  4.377100E-01
 4.377100E-01  4.377100E-01  4.377100E-01  4.377100E-01  4.377100E-01  4.377100E-01  4.377100E-01  4.377100E-01  4.377100E-01  4.377100E-01
 4.377100E-01  4.377100E-01  4.377100E-01  4.377100E-01  4.377100E-01  4.377100E-01  4.377100E-01  4.377100E-01  4.377100E-01  4.377100E-01
 4.377100E-01  4.377100E-01  4.377100E-01  4.377100E-01  4.377100E-01  4.377100E-01  4.377100E-01  4.377100E-01  4.377100E-01  4.377100E-01
 4.377100E-01  4.377100E-01  4.377100E-01  4.377100E-01  4.377100E-01  4.377100E-01  4.377100E-01  4.377100E-01  4.377100E-01  4.377100E-01
 4.377100E-01  4.377100E-01  4.377100E-01  4.377100E-01  4.377100E-01  4.377100E-01  4.377100E-01  4.377100E-01  4.377100E-01  4.377100E-01
 4.377100E-01  4.377100E-01  4.377100E-01  4.377100E-01  4.377100E-01  4.377100E-01  4.377100E-01  4.377100E-01  4.377100E-01  4.377100E-01
 4.377100E-01  4.377100E-01  4.377100E-01  4.377100E-01  4.377100E-01  4.377100E-01  4.377100E-01  4.377100E-01  4.377100E-01  4.377100E-01
 4.377100E-01  4.377100E-01  4.377100E-01  4.377100E-01  4.377100E-01  4.377100E-01  4.377100E-01  4.377100E-01  4.377100E-01  4.377100E-01
 4.377100E-01  4.377100E-01  4.377100E-01  4.377100E-01  4.377100E-01  4.377100E-01  4.377100E-01  4.377100E-01  4.377100E-01  4.377100E-01
 4.377100E-01  4.377100E-01  4.377100E-01  4.377100E-01  4.377100E-01  4.377100E-01  4.377100E-01  4.377100E-01  4.377100E-01  4.377100E-01
 4.377100E-01  4.377100E-01  4.377100E-01  4.377100E-01  4.377100E-01  4.377100E-01  4.377100E-01  4.377100E-01  4.377100E-01  4.377100E-01
 4.377100E-01  4.377100E-01  4.377100E-01  4.377100E-01  4.377100E-01  4.377100E-01  4.377100E-01  4.377100E-01  4.377100E-01  4.377100E-01
 4.377100E-01  4.377100E-01  4.377100E-01  4.377100E-01  4.377100E-01  4.377100E-01  4.377100E-01  4.377100E-01  4.377100E-01  4.377100E-01
 4.377100E-01  4.377100E-01  4.377100E-01  4.377100E-01  4.377100E-01  4.377100E-01  4.377100E-01  4.377100E-01  4.377100E-01  4.377100E-01
 4.377100E-01  4.377100E-01  4.377100E-01  4.377100E-01  4.377100E-01  4.377100E-01  4.377100E-01  4.377100E-01  4.377100E-01  4.377100E-01


SCALARS Permeability         float 1
LOOKUP_TABLE default
 8.829806E-13  8.829806E-13  8.829805E-13  8.829805E-13  8.829805E-13  8.829805E-13  8.829805E-13  8.829805E-13  8.829805E-13  8.829805E-13
 8.829806E-13  8.829806E-13  8.829805E-13  8.829805E-13  8.829805E-13  8.829805E-13  8.829805E-13  8.829805E-13  8.829805E-13  8.829805E-13
 8.829806E-13  8.829806E-13  8.829805E-13  8.829805E-13  8.829805E-13  8.829805E-13  8.829805E-13  8.829805E-13  8.829805E-13  8.829805E-13
 8.829806E-13  8.829806E-13  8.829805E-13  8.829805E-13  8.829805E-13  8.829805E-13  8.829805E-13  8.829805E-13  8.829805E-13  8.829805E-13
 8.829806E-13  8.829806E-13  8.829805E-13  8.829805E-13  8.829805E-13  8.829805E-13  8.829805E-13  8.829805E-13  8.829805E-13  8.829805E-13
 8.829806E-13  8.829806E-13  8.829805E-13  8.829805E-13  8.829805E-13  8.829805E-13  8.829805E-13  8.829805E-13  8.829805E-13  8.829805E-13
 8.829804E-13  8.829806E-13  8.829805E-13  8.829805E-13  8.829805E-13  8.829805E-13  8.829805E-13  8.829805E-13  8.829805E-13  8.829805E-13
 8.829804E-13  8.829806E-13  8.829806E-13  8.829805E-13  8.829805E-13  8.829805E-13  8.829805E-13  8.829805E-13  8.829805E-13  8.829805E-13
 8.829805E-13  8.829806E-13  8.829806E-13  8.829805E-13  8.829805E-13  8.829805E-13  8.829805E-13  8.829805E-13  8.829805E-13  8.829805E-13
 8.829805E-13  8.829806E-13  8.829806E-13  8.829805E-13  8.829805E-13  8.829805E-13  8.829805E-13  8.829805E-13  8.829805E-13  8.829805E-13
 8.829805E-13  8.829806E-13  8.829806E-13  8.829806E-13  8.829805E-13  8.829805E-13  8.829805E-13  8.829805E-13  8.829805E-13  8.829805E-13
 8.829805E-13  8.829806E-13  8.829806E-13  8.829806E-13  8.829806E-13  8.829806E-13  8.829805E-13  8.829805E-13  8.829805E-13  8.829805E-13
 8.829805E-13  8.829806E-13  8.829806E-13  8.829806E-13  8.829806E-13  8.829806E-13  8.829806E-13  8.829806E-13  8.829805E-13  8.829805E-13
 8.829805E-13  8.829806E-13  8.829806E-13  8.829806E-13  8.829806E-13  8.829806E-13  8.829806E-13  8.829806E-13  8.829806E-13  8.829805E-13
 8.829807E-13  8.829806E-13  8.829806E-13  8.829806E-13  8.829806E-13  8.829806E-13  8.829806E-13  8.829806E-13  8.829806E-13  8.829805E-13
 8.829807E-13  8.829806E-13  8.829806E-13  8.829806E-13  8.829806E-13  8.829806E-13  8.829806E-13  8.829806E-13  8.829806E-13  8.829806E-13
 8.829807E-13  8.829806E-13  8.829806E-13  8.829806E-13  8.829806E-13  8.829806E-13  8.829806E-13  8.829806E-13  8.829806E-13  8.829806E-13
 8.829807E-13  8.829806E-13  8.829806E-13  8.829806E-13  8.829806E-13  8.829806E-13  8.829806E-13  8.829806E-13  8.829806E-13  8.829806E-13
 8.829807E-13  8.829806E-13  8.829806E-13  8.829806E-13  8.829806E-13  8.829806E-13  8.829806E-13  8.829806E-13  8.829806E-13  8.829806E-13
 8.829807E-13  8.829806E-13  8.829806E-13  8.829806E-13  8.829806E-13  8.829806E-13  8.829806E-13  8.829806E-13  8.829806E-13  8.829806E-13


SCALARS Liquid_Pressure      float 1
LOOKUP_TABLE default
 8.042346E+06  7.709438E+06  7.596602E+06  7.555606E+06  7.541381E+06  7.535915E+06  7.531496E+06  7.523791E+06  7.509691E+06  7.488798E+06
 7.997185E+06  7.664281E+06  7.551448E+06  7.510453E+06  7.496228E+06  7.490762E+06  7.486343E+06  7.478639E+06  7.464539E+06  7.443647E+06
 7.952031E+06  7.619125E+06  7.506295E+06  7.465301E+06  7.451077E+06  7.445611E+06  7.441192E+06  7.433488E+06  7.419388E+06  7.398497E+06
 7.906882E+06  7.573971E+06  7.461144E+06  7.420150E+06  7.405927E+06  7.400461E+06  7.396042E+06  7.388338E+06  7.374239E+06  7.353348E+06
 7.861740E+06  7.528818E+06  7.415993E+06  7.375001E+06  7.360778E+06  7.355312E+06  7.350893E+06  7.343190E+06  7.329091E+06  7.308200E+06
 7.816603E+06  7.483666E+06  7.370844E+06  7.329853E+06  7.315630E+06  7.310165E+06  7.305746E+06  7.298043E+06  7.283944E+06  7.263054E+06
 7.771473E+06  7.438515E+06  7.325697E+06  7.284706E+06  7.270484E+06  7.265019E+06  7.260600E+06  7.252897E+06  7.238798E+06  7.217909E+06
 7.726336E+06  7.393366E+06  7.280550E+06  7.239561E+06  7.225339E+06  7.219874E+06  7.215455E+06  7.207752E+06  7.193654E+06  7.172765E+06
 7.681194E+06  7.348218E+06  7.235405E+06  7.194417E+06  7.180195E+06  7.174730E+06  7.170311E+06  7.162608E+06  7.148511E+06  7.127623E+06
 7.636046E+06  7.303071E+06  7.190261E+06  7.149274E+06  7.135052E+06  7.129587E+06  7.125169E+06  7.117466E+06  7.103369E+06  7.082481E+06
 7.590892E+06  7.257925E+06  7.145118E+06  7.104132E+06  7.089911E+06  7.084446E+06  7.080028E+06  7.072325E+06  7.058229E+06  7.037341E+06
 7.545732E+06  7.212781E+06  7.099976E+06  7.058991E+06  7.044771E+06  7.039306E+06  7.034888E+06  7.027186E+06  7.013089E+06  6.992203E+06
 7.500566E+06  7.167638E+06  7.054836E+06  7.013852E+06  6.999632E+06  6.994167E+06  6.989749E+06  6.982047E+06  6.967951E+06  6.947065E+06
 7.455395E+06  7.122496E+06  7.009697E+06  6.968714E+06  6.954494E+06  6.949030E+06  6.944612E+06  6.936910E+06  6.922815E+06  6.901929E+06
 7.410217E+06  7.077355E+06  6.964560E+06  6.923578E+06  6.909358E+06  6.903894E+06  6.899476E+06  6.891774E+06  6.877679E+06  6.856794E+06
 7.365046E+06  7.032216E+06  6.919423E+06  6.878442E+06  6.864223E+06  6.858759E+06  6.854341E+06  6.846640E+06  6.832545E+06  6.811660E+06
 7.319880E+06  6.987078E+06  6.874288E+06  6.833308E+06  6.819089E+06  6.813625E+06  6.809208E+06  6.801506E+06  6.787412E+06  6.766528E+06
 7.274721E+06  6.941941E+06  6.829154E+06  6.788175E+06  6.773957E+06  6.768493E+06  6.764076E+06  6.756374E+06  6.742280E+06  6.721396E+06
 7.229567E+06  6.896806E+06  6.784021E+06  6.743044E+06  6.728825E+06  6.723362E+06  6.718945E+06  6.711244E+06  6.697150E+06  6.676267E+06
 7.184420E+06  6.851672E+06  6.738890E+06  6.697913E+06  6.683695E+06  6.678232E+06  6.673815E+06  6.666114E+06  6.652020E+06  6.631138E+06


SCALARS Temperature          float 1
LOOKUP_TABLE default
 1.500316E+02  1.500119E+02  1.500052E+02  1.500028E+02  1.500019E+02  1.500016E+02  1.500013E+02  1.500009E+02  1.500001E+02  1.499988E+02
 1.500316E+02  1.500119E+02  1.500052E+02  1.500028E+02  1.500019E+02  1.500016E+02  1.500013E+02  1.500009E+02  1.500001E+02  1.499988E+02
 1.500316E+02  1.500119E+02  1.500052E+02  1.500028E+02  1.500019E+02  1.500016E+02  1.500013E+02  1.500009E+02  1.500001E+02  1.499988E+02
 1.500316E+02  1.500119E+02  1.500052E+02  1.500028E+02  1.500019E+02  1.500016E+02  1.500013E+02  1.500009E+02  1.500001E+02  1.499988E+02
 1.500316E+02  1.500119E+02  1.500052E+02  1.500028E+02  1.500019E+02  1.500016E+02  1.500014E+02  1.500009E+02  1.500001E+02  1.499988E+02
 1.500316E+02  1.500119E+02  1.500052E+02  1.500028E+02  1.500019E+02  1.500016E+02  1.500014E+02  1.500009E+02  1.500001E+02  1.499988E+02
 1.500316E+02  1.500119E+02  1.500052E+02  1.500028E+02  1.500019E+02  1.500016E+02  1.500014E+02  1.500009E+02  1.500001E+02  1.499988E+02
 1.500316E+02  1.500119E+02  1.500052E+02  1.500028E+02  1.500019E+02  1.500016E+02  1.500014E+02  1.500009E+02  1.500001E+02  1.499988E+02
 1.500316E+02  1.500119E+02  1.500052E+02  1.500028E+02  1.500019E+02  1.500016E+02  1.500014E+02  1.500009E+02  1.500001E+02  1.499988E+02
 1.500316E+02  1.500119E+02  1.500052E+02  1.500028E+02  1.500019E+02  1.500016E+02  1.500014E+02  1.500009E+02  1.500001E+02  1.499988E+02
 1.500316E+02  1.500119E+02  1.500052E+02  1.500028E+02  1.500019E+02  1.500016E+02  1.500014E+02  1.500009E+02  1.500001E+02  1.499988E+02
 1.500316E+02  1.500119E+02  1.500052E+02  1.500028E+02  1.500019E+02  1.500016E+02  1.500014E+02  1.500009E+02  1.500001E+02  1.499988E+02
 1.500316E+02  1.500119E+02  1.500052E+02  1.500028E+02  1.500019E+02  1.500016E+02  1.500014E+02  1.500009E+02  1.500001E+02  1.499988E+02
 1.500316E+02  1.500119E+02  1.500052E+02  1.500028E+02  1.500019E+02  1.500016E+02  1.500014E+02  1.500009E+02  1.500001E+02  1.499988E+02
 1.500317E+02  1.500119E+02  1.500052E+02  1.500028E+02  1.500019E+02  1.500016E+02  1.500014E+02  1.500009E+02  1.500001E+02  1.499988E+02
 1.500317E+02  1.500119E+02  1.500052E+02  1.500028E+02  1.500019E+02  1.500016E+02  1.500014E+02  1.500009E+02  1.500001E+02  1.499988E+02
 1.500317E+02  1.500119E+02  1.500052E+02  1.500028E+02  1.500019E+02  1.500016E+02  1.500014E+02  1.500009E+02  1.500001E+02  1.499988E+02
 1.500317E+02  1.500119E+02  1.500052E+02  1.500028E+02  1.500019E+02  1.500016E+02  1.500014E+02  1.500009E+02  1.500001E+02  1.499988E+02
 1.500317E+02  1.500119E+02  1.500052E+02  1.500028E+02  1.500019E+02  1.500016E+02  1.500014E+02  1.500009E+02  1.500001E+02  1.499988E+02
 1.500317E+02  1.500119E+02  1.500052E+02  1.500028E+02  1.500019E+02  1.500016E+02  1.500014E+02  1.500009E+02  1.500001E+02  1.499988E+02


SCALARS pH                   float 1
LOOKUP_TABLE default
 6.144187E+00  6.144158E+00  6.144148E+00  6.144144E+00  6.144143E+00  6.144142E+00  6.144142E+00  6.144141E+00  6.144140E+00  6.144138E+00
 6.144187E+00  6.144158E+00  6.144148E+00  6.144144E+00  6.144143E+00  6.144142E+00  6.144142E+00  6.144141E+00  6.144140E+00  6.144138E+00
 6.144187E+00  6.144158E+00  6.144148E+00  6.144144E+00  6.144143E+00  6.144142E+00  6.144142E+00  6.144141E+00  6.144140E+00  6.144138E+00
 6.144187E+00  6.144158E+00  6.144148E+00  6.144144E+00  6.144143E+00  6.144142E+00  6.144142E+00  6.144141E+00  6.144140E+00  6.144138E+00
 6.144187E+00  6.144158E+00  6.144148E+00  6.144144E+00  6.144143E+00  6.144142E+00  6.144142E+00  6.144141E+00  6.144140E+00  6.144138E+00
 6.144187E+00  6.144158E+00  6.144148E+00  6.144144E+00  6.144143E+00  6.144142E+00  6.144142E+00  6.144141E+00  6.144140E+00  6.144138E+00
 6.144186E+00  6.144158E+00  6.144148E+00  6.144144E+00  6.144143E+00  6.144142E+00  6.144142E+00  6.144141E+00  6.144140E+00  6.144138E+00
 6.144186E+00  6.144158E+00  6.144148E+00  6.144144E+00  6.144143E+00  6.144142E+00  6.144142E+00  6.144141E+00  6.144140E+00  6.144138E+00
 6.144186E+00  6.144158E+00  6.144148E+00  6.144144E+00  6.144143E+00  6.144142E+00  6.144142E+00  6.144141E+00  6.144140E+00  6.144138E+00
 6.144186E+00  6.144158E+00  6.144148E+00  6.144144E+00  6.144143E+00  6.144142E+00  6.144142E+00  6.144141E+00  6.144140E+00  6.144138E+00
 6.144186E+00  6.144158E+00  6.144148E+00  6.144144E+00  6.144143E+00  6.144142E+00  6.144142E+00  6.144141E+00  6.144140E+00  6.144138E+00
 6.144186E+00  6.144158E+00  6.144148E+00  6.144144E+00  6.144143E+00  6.144142E+00  6.144142E+00  6.144141E+00  6.144140E+00  6.144138E+00
 6.144186E+00  6.144158E+00  6.144148E+00  6.144144E+00  6.144143E+00  6.144142E+00  6.144142E+00  6.144141E+00  6.144140E+00  6.144138E+00
 6.144186E+00  6.144158E+00  6.144148E+00  6.144144E+00  6.144143E+00  6.144142E+00  6.144142E+00  6.144141E+00  6.144140E+00  6.144138E+00
 6.144187E+00  6.144158E+00  6.144148E+00  6.144144E+00  6.144143E+00  6.144142E+00  6.144142E+00  6.144141E+00  6.144140E+00  6.144138E+00
 6.144187E+00  6.144158E+00  6.144148E+00  6.144144E+00  6.144143E+00  6.144142E+00  6.144142E+00  6.144141E+00  6.144140E+00  6.144138E+00
 6.144187E+00  6.144158E+00  6.144148E+00  6.144144E+00  6.144143E+00  6.144142E+00  6.144142E+00  6.144141E+00  6.144140E+00  6.144138E+00
 6.144187E+00  6.144158E+00  6.144148E+00  6.144144E+00  6.144143E+00  6.144142E+00  6.144142E+00  6.144141E+00  6.144140E+00  6.144138E+00
 6.144187E+00  6.144158E+00  6.144148E+00  6.144144E+00  6.144143E+00  6.144142E+00  6.144142E+00  6.144141E+00  6.144140E+00  6.144138E+00
 6.144187E+00  6.144158E+00  6.144148E+00  6.144144E+00  6.144143E+00  6.144142E+00  6.144142E+00  6.144141E+00  6.144140E+00  6.144138E+00


SCALARS Total_H+             float 1
LOOKUP_TABLE default
-3.056396E-03 -3.057095E-03 -3.057333E-03 -3.057419E-03 -3.057449E-03 -3.057461E-03 -3.057470E-03 -3.057486E-03 -3.057516E-03 -3.057560E-03
-3.056395E-03 -3.057095E-03 -3.057333E-03 -3.057419E-03 -3.057449E-03 -3.057460E-03 -3.057470E-03 -3.057486E-03 -3.057516E-03 -3.057560E-03
-3.056395E-03 -3.057094E-03 -3.057332E-03 -3.057419E-03 -3.057449E-03 -3.057460E-03 -3.057469E-03 -3.057486E-03 -3.057515E-03 -3.057559E-03
-3.056395E-03 -3.057094E-03 -3.057332E-03 -3.057419E-03 -3.057449E-03 -3.057460E-03 -3.057469E-03 -3.057486E-03 -3.057515E-03 -3.057559E-03
-3.056395E-03 -3.057094E-03 -3.057332E-03 -3.057418E-03 -3.057448E-03 -3.057460E-03 -3.057469E-03 -3.057485E-03 -3.057515E-03 -3.057559E-03
-3.056394E-03 -3.057094E-03 -3.057332E-03 -3.057418E-03 -3.057448E-03 -3.057460E-03 -3.057469E-03 -3.057485E-03 -3.057515E-03 -3.057559E-03
-3.056364E-03 -3.057094E-03 -3.057332E-03 -3.057418E-03 -3.057448E-03 -3.057459E-03 -3.057469E-03 -3.057485E-03 -3.057515E-03 -3.057559E-03
-3.056364E-03 -3.057093E-03 -3.057331E-03 -3.057418E-03 -3.057448E-03 -3.057459E-03 -3.057469E-03 -3.057485E-03 -3.057515E-03 -3.057559E-03
-3.056363E-03 -3.057093E-03 -3.057331E-03 -3.057418E-03 -3.057448E-03 -3.057459E-03 -3.057468E-03 -3.057485E-03 -3.057514E-03 -3.057558E-03
-3.056363E-03 -3.057093E-03 -3.057331E-03 -3.057418E-03 -3.057447E-03 -3.057459E-03 -3.057468E-03 -3.057485E-03 -3.057514E-03 -3.057558E-03
-3.056363E-03 -3.057093E-03 -3.057331E-03 -3.057417E-03 -3.057447E-03 -3.057459E-03 -3.057468E-03 -3.057484E-03 -3.057514E-03 -3.057558E-03
-3.056362E-03 -3.057093E-03 -3.057331E-03 -3.057417E-03 -3.057447E-03 -3.057459E-03 -3.057468E-03 -3.057484E-03 -3.057514E-03 -3.057558E-03
-3.056362E-03 -3.057092E-03 -3.057330E-03 -3.057417E-03 -3.057447E-03 -3.057458E-03 -3.057468E-03 -3.057484E-03 -3.057514E-03 -3.057558E-03
-3.056362E-03 -3.057092E-03 -3.057330E-03 -3.057417E-03 -3.057447E-03 -3.057458E-03 -3.057468E-03 -3.057484E-03 -3.057514E-03 -3.057558E-03
-3.056390E-03 -3.057092E-03 -3.057330E-03 -3.057417E-03 -3.057447E-03 -3.057458E-03 -3.057467E-03 -3.057484E-03 -3.057514E-03 -3.057558E-03
-3.056390E-03 -3.057092E-03 -3.057330E-03 -3.057416E-03 -3.057446E-03 -3.057458E-03 -3.057467E-03 -3.057484E-03 -3.057513E-03 -3.057557E-03
-3.056390E-03 -3.057091E-03 -3.057330E-03 -3.057416E-03 -3.057446E-03 -3.057458E-03 -3.057467E-03 -3.057483E-03 -3.057513E-03 -3.057557E-03
-3.056390E-03 -3.057091E-03 -3.057330E-03 -3.057416E-03 -3.057446E-03 -3.057458E-03 -3.057467E-03 -3.057483E-03 -3.057513E-03 -3.057557E-03
-3.056390E-03 -3.057091E-03 -3.057329E-03 -3.057416E-03 -3.057446E-03 -3.057457E-03 -3.057467E-03 -3.057483E-03 -3.057513E-03 -3.057557E-03
-3.056390E-03 -3.057091E-03 -3.057329E-03 -3.057416E-03 -3.057446E-03 -3.057457E-03 -3.057467E-03 -3.057483E-03 -3.057513E-03 -3.057557E-03


SCALARS Total_SiO2(aq)       float 1
LOOKUP_TABLE default
 1.039472E-02  1.039303E-02  1.039247E-02  1.039227E-02  1.039220E-02  1.039217E-02  1.039215E-02  1.039211E-02  1.039204E-02  1.039194E-02
 1.039472E-02  1.039303E-02  1.039247E-02  1.039227E-02  1.039220E-02  1.039217E-02  1.039215E-02  1.039211E-02  1.039204E-02  1.039194E-02
 1.039472E-02  1.039303E-02  1.039247E-02  1.039227E-02  1.039220E-02  1.039217E-02  1.039215E-02  1.039211E-02  1.039204E-02  1.039194E-02
 1.039472E-02  1.039303E-02  1.039247E-02  1.039227E-02  1.039220E-02  1.039217E-02  1.039215E-02  1.039211E-02  1.039204E-02  1.039194E-02
 1.039472E-02  1.039303E-02  1.039247E-02  1.039227E-02  1.039220E-02  1.039217E-02  1.039215E-02  1.039211E-02  1.039204E-02  1.039194E-02
 1.039472E-02  1.039303E-02  1.039247E-02  1.039227E-02  1.039220E-02  1.039217E-02  1.039215E-02  1.039211E-02  1.039204E-02  1.039194E-02
 1.039495E-02  1.039304E-02  1.039247E-02  1.039227E-02  1.039220E-02  1.039217E-02  1.039215E-02  1.039211E-02  1.039204E-02  1.039194E-02
 1.039495E-02  1.039304E-02  1.039247E-02  1.039227E-02  1.039220E-02  1.039217E-02  1.039215E-02  1.039211E-02  1.039204E-02  1.039194E-02
 1.039495E-02  1.039304E-02  1.039247E-02  1.039227E-02  1.039220E-02  1.039217E-02  1.039215E-02  1.039211E-02  1.039204E-02  1.039194E-02
 1.039495E-02  1.039304E-02  1.039247E-02  1.039227E-02  1.039220E-02  1.039217E-02  1.039215E-02  1.039211E-02  1.039204E-02  1.039194E-02
 1.039495E-02  1.039304E-02  1.039247E-02  1.039227E-02  1.039220E-02  1.039217E-02  1.039215E-02  1.039211E-02  1.039204E-02  1.039194E-02
 1.039495E-02  1.039304E-02  1.039247E-02  1.039227E-02  1.039220E-02  1.039217E-02  1.039215E-02  1.039212E-02  1.039204E-02  1.039194E-02
 1.039495E-02  1.039304E-02  1.039247E-02  1.039227E-02  1.039220E-02  1.039217E-02  1.039215E-02  1.039212E-02  1.039204E-02  1.039194E-02
 1.039495E-02  1.039304E-02  1.039247E-02  1.039227E-02  1.039220E-02  1.039217E-02  1.039215E-02  1.039212E-02  1.039204E-02  1.039194E-02
 1.039472E-02  1.039304E-02  1.039247E-02  1.039227E-02  1.039220E-02  1.039217E-02  1.039215E-02  1.039212E-02  1.039204E-02  1.039194E-02
 1.039472E-02  1.039304E-02  1.039247E-02  1.039227E-02  1.039220E-02  1.039217E-02  1.039215E-02  1.039212E-02  1.039204E-02  1.039194E-02
 1.039472E-02  1.039304E-02  1.039247E-02  1.039227E-02  1.039220E-02  1.039217E-02  1.039215E-02  1.039212E-02  1.039204E-02  1.039194E-02
 1.039472E-02  1.039304E-02  1.039247E-02  1.039227E-02  1.039220E-02  1.039217E-02  1.039215E-02  1.039212E-02  1.039204E-02  1.039194E-02
 1.039472E-02  1.039304E-02  1.039247E-02  1.039227E-02  1.039220E-02  1.039217E-02  1.039215E-02  1.039212E-02  1.039204E-02  1.039194E-02