# vtk DataFile Version 2.0
PFLOTRAN output
ASCII
DATASET UNSTRUCTURED_GRID
POINTS          462 float
 0.000000E+00  0.000000E+00  0.000000E+00
 1.000000E+01  0.000000E+00  0.000000E+00
 2.000000E+01  0.000000E+00  0.000000E+00
 3.000000E+01  0.000000E+00  0.000000E+00
 4.000000E+01  0.000000E+00  0.000000E+00
 5.000000E+01  0.000000E+00  0.000000E+00
 6.000000E+01  0.000000E+00  0.000000E+00
 7.000000E+01  0.000000E+00  0.000000E+00
 8.000000E+01  0.000000E+00  0.000000E+00
 9.000000E+01  0.000000E+00  0.000000E+00
 1.000000E+02  0.000000E+00  0.000000E+00
 0.000000E+00  1.000000E+00  0.000000E+00
 1.000000E+01  1.000000E+00  0.000000E+00
 2.000000E+01  1.000000E+00  0.000000E+00
 3.000000E+01  1.000000E+00  0.000000E+00
 4.000000E+01  1.000000E+00  0.000000E+00
 5.000000E+01  1.000000E+00  0.000000E+00
 6.000000E+01  1.000000E+00  0.000000E+00
 7.000000E+01  1.000000E+00  0.000000E+00
 8.000000E+01  1.000000E+00  0.000000E+00
 9.000000E+01  1.000000E+00  0.000000E+00
 1.000000E+02  1.000000E+00  0.000000E+00
 0.000000E+00  0.000000E+00  5.000000E+00
 1.000000E+01  0.000000E+00  5.000000E+00
 2.000000E+01  0.000000E+00  5.000000E+00
 3.000000E+01  0.000000E+00  5.000000E+00
 4.000000E+01  0.000000E+00  5.000000E+00
 5.000000E+01  0.000000E+00  5.000000E+00
 6.000000E+01  0.000000E+00  5.000000E+00
 7.000000E+01  0.000000E+00  5.000000E+00
 8.000000E+01  0.000000E+00  5.000000E+00
 9.000000E+01  0.000000E+00  5.000000E+00
 1.000000E+02  0.000000E+00  5.000000E+00
 0.000000E+00  1.000000E+00  5.000000E+00
 1.000000E+01  1.000000E+00  5.000000E+00
 2.000000E+01  1.000000E+00  5.000000E+00
 3.000000E+01  1.000000E+00  5.000000E+00
 4.000000E+01  1.000000E+00  5.000000E+00
 5.000000E+01  1.000000E+00  5.000000E+00
 6.000000E+01  1.000000E+00  5.000000E+00
 7.000000E+01  1.000000E+00  5.000000E+00
 8.000000E+01  1.000000E+00  5.000000E+00
 9.000000E+01  1.000000E+00  5.000000E+00
 1.000000E+02  1.000000E+00  5.000000E+00
 0.000000E+00  0.000000E+00  1.000000E+01
 1.000000E+01  0.000000E+00  1.000000E+01
 2.000000E+01  0.000000E+00  1.000000E+01
 3.000000E+01  0.000000E+00  1.000000E+01
 4.000000E+01  0.000000E+00  1.000000E+01
 5.000000E+01  0.000000E+00  1.000000E+01
 6.000000E+01  0.000000E+00  1.000000E+01
 7.000000E+01  0.000000E+00  1.000000E+01
 8.000000E+01  0.000000E+00  1.000000E+01
 9.000000E+01  0.000000E+00  1.000000E+01
 1.000000E+02  0.000000E+00  1.000000E+01
 0.000000E+00  1.000000E+00  1.000000E+01
 1.000000E+01  1.000000E+00  1.000000E+01
 2.000000E+01  1.000000E+00  1.000000E+01
 3.000000E+01  1.000000E+00  1.000000E+01
 4.000000E+01  1.000000E+00  1.000000E+01
 5.000000E+01  1.000000E+00  1.000000E+01
 6.000000E+01  1.000000E+00  1.000000E+01
 7.000000E+01  1.000000E+00  1.000000E+01
 8.000000E+01  1.000000E+00  1.000000E+01
 9.000000E+01  1.000000E+00  1.000000E+01
 1.000000E+02  1.000000E+00  1.000000E+01
 0.000000E+00  0.000000E+00  1.500000E+01
 1.000000E+01  0.000000E+00  1.500000E+01
 2.000000E+01  0.000000E+00  1.500000E+01
 3.000000E+01  0.000000E+00  1.500000E+01
 4.000000E+01  0.000000E+00  1.500000E+01
 5.000000E+01  0.000000E+00  1.500000E+01
 6.000000E+01  0.000000E+00  1.500000E+01
 7.000000E+01  0.000000E+00  1.500000E+01
 8.000000E+01  0.000000E+00  1.500000E+01
 9.000000E+01  0.000000E+00  1.500000E+01
 1.000000E+02  0.000000E+00  1.500000E+01
 0.000000E+00  1.000000E+00  1.500000E+01
 1.000000E+01  1.000000E+00  1.500000E+01
 2.000000E+01  1.000000E+00  1.500000E+01
 3.000000E+01  1.000000E+00  1.500000E+01
 4.000000E+01  1.000000E+00  1.500000E+01
 5.000000E+01  1.000000E+00  1.500000E+01
 6.000000E+01  1.000000E+00  1.500000E+01
 7.000000E+01  1.000000E+00  1.500000E+01
 8.000000E+01  1.000000E+00  1.500000E+01
 9.000000E+01  1.000000E+00  1.500000E+01
 1.000000E+02  1.000000E+00  1.500000E+01
 0.000000E+00  0.000000E+00  2.000000E+01
 1.000000E+01  0.000000E+00  2.000000E+01
 2.000000E+01  0.000000E+00  2.000000E+01
 3.000000E+01  0.000000E+00  2.000000E+01
 4.000000E+01  0.000000E+00  2.000000E+01
 5.000000E+01  0.000000E+00  2.000000E+01
 6.000000E+01  0.000000E+00  2.000000E+01
 7.000000E+01  0.000000E+00  2.000000E+01
 8.000000E+01  0.000000E+00  2.000000E+01
 9.000000E+01  0.000000E+00  2.000000E+01
 1.000000E+02  0.000000E+00  2.000000E+01
 0.000000E+00  1.000000E+00  2.000000E+01
 1.000000E+01  1.000000E+00  2.000000E+01
 2.000000E+01  1.000000E+00  2.000000E+01
 3.000000E+01  1.000000E+00  2.000000E+01
 4.000000E+01  1.000000E+00  2.000000E+01
 5.000000E+01  1.000000E+00  2.000000E+01
 6.000000E+01  1.000000E+00  2.000000E+01
 7.000000E+01  1.000000E+00  2.000000E+01
 8.000000E+01  1.000000E+00  2.000000E+01
 9.000000E+01  1.000000E+00  2.000000E+01
 1.000000E+02  1.000000E+00  2.000000E+01
 0.000000E+00  0.000000E+00  2.500000E+01
 1.000000E+01  0.000000E+00  2.500000E+01
 2.000000E+01  0.000000E+00  2.500000E+01
 3.000000E+01  0.000000E+00  2.500000E+01
 4.000000E+01  0.000000E+00  2.500000E+01
 5.000000E+01  0.000000E+00  2.500000E+01
 6.000000E+01  0.000000E+00  2.500000E+01
 7.000000E+01  0.000000E+00  2.500000E+01
 8.000000E+01  0.000000E+00  2.500000E+01
 9.000000E+01  0.000000E+00  2.500000E+01
 1.000000E+02  0.000000E+00  2.500000E+01
 0.000000E+00  1.000000E+00  2.500000E+01
 1.000000E+01  1.000000E+00  2.500000E+01
 2.000000E+01  1.000000E+00  2.500000E+01
 3.000000E+01  1.000000E+00  2.500000E+01
 4.000000E+01  1.000000E+00  2.500000E+01
 5.000000E+01  1.000000E+00  2.500000E+01
 6.000000E+01  1.000000E+00  2.500000E+01
 7.000000E+01  1.000000E+00  2.500000E+01
 8.000000E+01  1.000000E+00  2.500000E+01
 9.000000E+01  1.000000E+00  2.500000E+01
 1.000000E+02  1.000000E+00  2.500000E+01
 0.000000E+00  0.000000E+00  3.000000E+01
 1.000000E+01  0.000000E+00  3.000000E+01
 2.000000E+01  0.000000E+00  3.000000E+01
 3.000000E+01  0.000000E+00  3.000000E+01
 4.000000E+01  0.000000E+00  3.000000E+01
 5.000000E+01  0.000000E+00  3.000000E+01
 6.000000E+01  0.000000E+00  3.000000E+01
 7.000000E+01  0.000000E+00  3.000000E+01
 8.000000E+01  0.000000E+00  3.000000E+01
 9.000000E+01  0.000000E+00  3.000000E+01
 1.000000E+02  0.000000E+00  3.000000E+01
 0.000000E+00  1.000000E+00  3.000000E+01
 1.000000E+01  1.000000E+00  3.000000E+01
 2.000000E+01  1.000000E+00  3.000000E+01
 3.000000E+01  1.000000E+00  3.000000E+01
 4.000000E+01  1.000000E+00  3.000000E+01
 5.000000E+01  1.000000E+00  3.000000E+01
 6.000000E+01  1.000000E+00  3.000000E+01
 7.000000E+01  1.000000E+00  3.000000E+01
 8.000000E+01  1.000000E+00  3.000000E+01
 9.000000E+01  1.000000E+00  3.000000E+01
 1.000000E+02  1.000000E+00  3.000000E+01
 0.000000E+00  0.000000E+00  3.500000E+01
 1.000000E+01  0.000000E+00  3.500000E+01
 2.000000E+01  0.000000E+00  3.500000E+01
 3.000000E+01  0.000000E+00  3.500000E+01
 4.000000E+01  0.000000E+00  3.500000E+01
 5.000000E+01  0.000000E+00  3.500000E+01
 6.000000E+01  0.000000E+00  3.500000E+01
 7.000000E+01  0.000000E+00  3.500000E+01
 8.000000E+01  0.000000E+00  3.500000E+01
 9.000000E+01  0.000000E+00  3.500000E+01
 1.000000E+02  0.000000E+00  3.500000E+01
 0.000000E+00  1.000000E+00  3.500000E+01
 1.000000E+01  1.000000E+00  3.500000E+01
 2.000000E+01  1.000000E+00  3.500000E+01
 3.000000E+01  1.000000E+00  3.500000E+01
 4.000000E+01  1.000000E+00  3.500000E+01
 5.000000E+01  1.000000E+00  3.500000E+01
 6.000000E+01  1.000000E+00  3.500000E+01
 7.000000E+01  1.000000E+00  3.500000E+01
 8.000000E+01  1.000000E+00  3.500000E+01
 9.000000E+01  1.000000E+00  3.500000E+01
 1.000000E+02  1.000000E+00  3.500000E+01
 0.000000E+00  0.000000E+00  4.000000E+01
 1.000000E+01  0.000000E+00  4.000000E+01
 2.000000E+01  0.000000E+00  4.000000E+01
 3.000000E+01  0.000000E+00  4.000000E+01
 4.000000E+01  0.000000E+00  4.000000E+01
 5.000000E+01  0.000000E+00  4.000000E+01
 6.000000E+01  0.000000E+00  4.000000E+01
 7.000000E+01  0.000000E+00  4.000000E+01
 8.000000E+01  0.000000E+00  4.000000E+01
 9.000000E+01  0.000000E+00  4.000000E+01
 1.000000E+02  0.000000E+00  4.000000E+01
 0.000000E+00  1.000000E+00  4.000000E+01
 1.000000E+01  1.000000E+00  4.000000E+01
 2.000000E+01  1.000000E+00  4.000000E+01
 3.000000E+01  1.000000E+00  4.000000E+01
 4.000000E+01  1.000000E+00  4.000000E+01
 5.000000E+01  1.000000E+00  4.000000E+01
 6.000000E+01  1.000000E+00  4.000000E+01
 7.000000E+01  1.000000E+00  4.000000E+01
 8.000000E+01  1.000000E+00  4.000000E+01
 9.000000E+01  1.000000E+00  4.000000E+01
 1.000000E+02  1.000000E+00  4.000000E+01
 0.000000E+00  0.000000E+00  4.500000E+01
 1.000000E+01  0.000000E+00  4.500000E+01
 2.000000E+01  0.000000E+00  4.500000E+01
 3.000000E+01  0.000000E+00  4.500000E+01
 4.000000E+01  0.000000E+00  4.500000E+01
 5.000000E+01  0.000000E+00  4.500000E+01
 6.000000E+01  0.000000E+00  4.500000E+01
 7.000000E+01  0.000000E+00  4.500000E+01
 8.000000E+01  0.000000E+00  4.500000E+01
 9.000000E+01  0.000000E+00  4.500000E+01
 1.000000E+02  0.000000E+00  4.500000E+01
 0.000000E+00  1.000000E+00  4.500000E+01
 1.000000E+01  1.000000E+00  4.500000E+01
 2.000000E+01  1.000000E+00  4.500000E+01
 3.000000E+01  1.000000E+00  4.500000E+01
 4.000000E+01  1.000000E+00  4.500000E+01
 5.000000E+01  1.000000E+00  4.500000E+01
 6.000000E+01  1.000000E+00  4.500000E+01
 7.000000E+01  1.000000E+00  4.500000E+01
 8.000000E+01  1.000000E+00  4.500000E+01
 9.000000E+01  1.000000E+00  4.500000E+01
 1.000000E+02  1.000000E+00  4.500000E+01
 0.000000E+00  0.000000E+00  5.000000E+01
 1.000000E+01  0.000000E+00  5.000000E+01
 2.000000E+01  0.000000E+00  5.000000E+01
 3.000000E+01  0.000000E+00  5.000000E+01
 4.000000E+01  0.000000E+00  5.000000E+01
 5.000000E+01  0.000000E+00  5.000000E+01
 6.000000E+01  0.000000E+00  5.000000E+01
 7.000000E+01  0.000000E+00  5.000000E+01
 8.000000E+01  0.000000E+00  5.000000E+01
 9.000000E+01  0.000000E+00  5.000000E+01
 1.000000E+02  0.000000E+00  5.000000E+01
 0.000000E+00  1.000000E+00  5.000000E+01
 1.000000E+01  1.000000E+00  5.000000E+01
 2.000000E+01  1.000000E+00  5.000000E+01
 3.000000E+01  1.000000E+00  5.000000E+01
[...]
CELL_DATA      200
SCALARS Porosity             float 1
LOOKUP_TABLE default
 4.377091E-01  4.377099E-01  4.377100E-01  4.377100E-01  4.377100E-01  4.377100E-01  4.377100E-01  4.377100E-01  4.377100E-01  4.377100E-01
 4.377016E-01  4.377087E-01  4.377098E-01  4.377100E-01  4.377100E-01  4.377100E-01  4.377100E-01  4.377100E-01  4.377100E-01  4.377100E-01
 4.376691E-01  4.377026E-01  4.377090E-01  4.377099E-01  4.377100E-01  4.377100E-01  4.377100E-01  4.377100E-01  4.377100E-01  4.377100E-01
 4.375792E-01  4.376817E-01  4.377056E-01  4.377095E-01  4.377099E-01  4.377100E-01  4.377100E-01  4.377100E-01  4.377100E-01  4.377100E-01
 4.374279E-01  4.376300E-01  4.376957E-01  4.377081E-01  4.377098E-01  4.377100E-01  4.377100E-01  4.377100E-01  4.377100E-01  4.377100E-01
 4.374160E-01  4.375432E-01  4.376747E-01  4.377050E-01  4.377095E-01  4.377100E-01  4.377100E-01  4.377100E-01  4.377100E-01  4.377100E-01
 4.381205E-01  4.374857E-01  4.376449E-01  4.376999E-01  4.377088E-01  4.377099E-01  4.377100E-01  4.377100E-01  4.377100E-01  4.377100E-01
 4.381207E-01  4.374690E-01  4.376297E-01  4.376964E-01  4.377084E-01  4.377098E-01  4.377100E-01  4.377100E-01  4.377100E-01  4.377100E-01
 4.381209E-01  4.374620E-01  4.376209E-01  4.376941E-01  4.377080E-01  4.377098E-01  4.377100E-01  4.377100E-01  4.377100E-01  4.377100E-01
 4.381209E-01  4.374592E-01  4.376168E-01  4.376929E-01  4.377078E-01  4.377098E-01  4.377100E-01  4.377100E-01  4.377100E-01  4.377100E-01
 4.381208E-01  4.374592E-01  4.376168E-01  4.376929E-01  4.377078E-01  4.377098E-01  4.377100E-01  4.377100E-01  4.377100E-01  4.377100E-01
 4.381207E-01  4.374620E-01  4.376209E-01  4.376941E-01  4.377080E-01  4.377098E-01  4.377100E-01  4.377100E-01  4.377100E-01  4.377100E-01
 4.381204E-01  4.374689E-01  4.376297E-01  4.376965E-01  4.377084E-01  4.377098E-01  4.377100E-01  4.377100E-01  4.377100E-01  4.377100E-01
 4.381201E-01  4.374857E-01  4.376449E-01  4.376999E-01  4.377089E-01  4.377099E-01  4.377100E-01  4.377100E-01  4.377100E-01  4.377100E-01
 4.374158E-01  4.375433E-01  4.376747E-01  4.377050E-01  4.377095E-01  4.377100E-01  4.377100E-01  4.377100E-01  4.377100E-01  4.377100E-01
 4.374279E-01  4.376301E-01  4.376958E-01  4.377082E-01  4.377098E-01  4.377100E-01  4.377100E-01  4.377100E-01  4.377100E-01  4.377100E-01
 4.375793E-01  4.376818E-01  4.377056E-01  4.377095E-01  4.377100E-01  4.377100E-01  4.377100E-01  4.377100E-01  4.377100E-01  4.377100E-01
 4.376692E-01  4.377027E-01  4.377090E-01  4.377099E-01  4.377100E-01  4.377100E-01  4.377100E-01  4.377100E-01  4.377100E-01  4.377100E-01
 4.377017E-01  4.377087E-01  4.377098E-01  4.377100E-01  4.377100E-01  4.377100E-01  4.377100E-01  4.377100E-01  4.377100E-01  4.377100E-01
 4.377091E-01  4.377099E-01  4.377100E-01  4.377100E-01  4.377100E-01  4.377100E-01  4.377100E-01  4.377100E-01  4.377100E-01  4.377100E-01


SCALARS Permeability         float 1
LOOKUP_TABLE default
 1.000000E-12  1.000000E-12  1.000000E-12  1.000000E-12  1.000000E-12  1.000000E-12  1.000000E-12  1.000000E-12  1.000000E-12  1.000000E-12
 1.000000E-12  1.000000E-12  1.000000E-12  1.000000E-12  1.000000E-12  1.000000E-12  1.000000E-12  1.000000E-12  1.000000E-12  1.000000E-12
 1.000000E-12  1.000000E-12  1.000000E-12  1.000000E-12  1.000000E-12  1.000000E-12  1.000000E-12  1.000000E-12  1.000000E-12  1.000000E-12
 1.000000E-12  1.000000E-12  1.000000E-12  1.000000E-12  1.000000E-12  1.000000E-12  1.000000E-12  1.000000E-12  1.000000E-12  1.000000E-12
 1.000000E-12  1.000000E-12  1.000000E-12  1.000000E-12  1.000000E-12  1.000000E-12  1.000000E-12  1.000000E-12  1.000000E-12  1.000000E-12
 1.000000E-12  1.000000E-12  1.000000E-12  1.000000E-12  1.000000E-12  1.000000E-12  1.000000E-12  1.000000E-12  1.000000E-12  1.000000E-12
 1.000000E-12  1.000000E-12  1.000000E-12  1.000000E-12  1.000000E-12  1.000000E-12  1.000000E-12  1.000000E-12  1.000000E-12  1.000000E-12
 1.000000E-12  1.000000E-12  1.000000E-12  1.000000E-12  1.000000E-12  1.000000E-12  1.000000E-12  1.000000E-12  1.000000E-12  1.000000E-12
 1.000000E-12  1.000000E-12  1.000000E-12  1.000000E-12  1.000000E-12  1.000000E-12  1.000000E-12  1.000000E-12  1.000000E-12  1.000000E-12
 1.000000E-12  1.000000E-12  1.000000E-12  1.000000E-12  1.000000E-12  1.000000E-12  1.000000E-12  1.000000E-12  1.000000E-12  1.000000E-12
 1.000000E-12  1.000000E-12  1.000000E-12  1.000000E-12  1.000000E-12  1.000000E-12  1.000000E-12  1.000000E-12  1.000000E-12  1.000000E-12
 1.000000E-12  1.000000E-12  1.000000E-12  1.000000E-12  1.000000E-12  1.000000E-12  1.000000E-12  1.000000E-12  1.000000E-12  1.000000E-12
 1.000000E-12  1.000000E-12  1.000000E-12  1.000000E-12  1.000000E-12  1.000000E-12  1.000000E-12  1.000000E-12  1.000000E-12  1.000000E-12
 1.000000E-12  1.000000E-12  1.000000E-12  1.000000E-12  1.000000E-12  1.000000E-12  1.000000E-12  1.000000E-12  1.000000E-12  1.000000E-12
 1.000000E-12  1.000000E-12  1.000000E-12  1.000000E-12  1.000000E-12  1.000000E-12  1.000000E-12  1.000000E-12  1.000000E-12  1.000000E-12
 1.000000E-12  1.000000E-12  1.000000E-12  1.000000E-12  1.000000E-12  1.000000E-12  1.000000E-12  1.000000E-12  1.000000E-12  1.000000E-12
 1.000000E-12  1.000000E-12  1.000000E-12  1.000000E-12  1.000000E-12  1.000000E-12  1.000000E-12  1.000000E-12  1.000000E-12  1.000000E-12
 1.000000E-12  1.000000E-12  1.000000E-12  1.000000E-12  1.000000E-12  1.000000E-12  1.000000E-12  1.000000E-12  1.000000E-12  1.000000E-12
 1.000000E-12  1.000000E-12  1.000000E-12  1.000000E-12  1.000000E-12  1.000000E-12  1.000000E-12  1.000000E-12  1.000000E-12  1.000000E-12
 1.000000E-12  1.000000E-12  1.000000E-12  1.000000E-12  1.000000E-12  1.000000E-12  1.000000E-12  1.000000E-12  1.000000E-12  1.000000E-12


SCALARS Liquid_Pressure      float 1
LOOKUP_TABLE default
 7.947694E+06  7.908023E+06  7.849038E+06  7.785168E+06  7.723655E+06  7.667253E+06  7.616529E+06  7.571152E+06  7.530501E+06  7.493937E+06
 7.922365E+06  7.875908E+06  7.811241E+06  7.743898E+06  7.680496E+06  7.623113E+06  7.571887E+06  7.526251E+06  7.485462E+06  7.448817E+06
 7.920264E+06  7.857606E+06  7.780713E+06  7.706312E+06  7.639188E+06  7.579902E+06  7.527711E+06  7.481580E+06  7.440528E+06  7.403727E+06
 7.949493E+06  7.854492E+06  7.757125E+06  7.671959E+06  7.599431E+06  7.537453E+06  7.483911E+06  7.437093E+06  7.395677E+06  7.358660E+06
 8.026234E+06  7.868002E+06  7.739614E+06  7.640078E+06  7.560771E+06  7.495519E+06  7.440362E+06  7.392727E+06  7.350880E+06  7.313609E+06
 8.182131E+06  7.897943E+06  7.726291E+06  7.609527E+06  7.522612E+06  7.453796E+06  7.396909E+06  7.348407E+06  7.306104E+06  7.268565E+06
 8.480273E+06  7.937759E+06  7.713676E+06  7.578789E+06  7.484252E+06  7.411947E+06  7.353385E+06  7.304051E+06  7.261312E+06  7.223517E+06
 8.628532E+06  7.961932E+06  7.696725E+06  7.546163E+06  7.444968E+06  7.369633E+06  7.309629E+06  7.259580E+06  7.216469E+06  7.178457E+06
 8.688836E+06  7.963532E+06  7.671923E+06  7.510193E+06  7.404121E+06  7.326560E+06  7.265498E+06  7.214928E+06  7.171546E+06  7.133374E+06
 8.690489E+06  7.941599E+06  7.637346E+06  7.469881E+06  7.361246E+06  7.282510E+06  7.220890E+06  7.170045E+06  7.126520E+06  7.088265E+06
 8.645279E+06  7.896427E+06  7.592190E+06  7.424732E+06  7.316101E+06  7.237367E+06  7.175748E+06  7.124904E+06  7.081379E+06  7.043125E+06
 8.553211E+06  7.828019E+06  7.536453E+06  7.374745E+06  7.268685E+06  7.191132E+06  7.130074E+06  7.079505E+06  7.036125E+06  6.997955E+06
 8.402514E+06  7.736087E+06  7.470945E+06  7.320418E+06  7.219243E+06  7.143919E+06  7.083921E+06  7.033876E+06  6.990767E+06  6.952757E+06
 8.163914E+06  7.621597E+06  7.397592E+06  7.262750E+06  7.168239E+06  7.095948E+06  7.037394E+06  6.988064E+06  6.945329E+06  6.907538E+06
 7.775533E+06  7.491485E+06  7.319911E+06  7.203196E+06  7.116311E+06  7.047512E+06  6.990633E+06  6.942138E+06  6.899840E+06  6.862306E+06
 7.529396E+06  7.371261E+06  7.242945E+06  7.143458E+06  7.064183E+06  6.998949E+06  6.943803E+06  6.896176E+06  6.854335E+06  6.817071E+06
 7.362409E+06  7.267475E+06  7.170171E+06  7.085053E+06  7.012556E+06  6.950597E+06  6.897068E+06  6.850259E+06  6.808851E+06  6.771841E+06
 7.242923E+06  7.180315E+06  7.103477E+06  7.029120E+06  6.962026E+06  6.902760E+06  6.850583E+06  6.804463E+06  6.763421E+06  6.726628E+06
 7.154758E+06  7.108341E+06  7.043722E+06  6.976419E+06  6.913046E+06  6.855684E+06  6.804474E+06  6.758851E+06  6.718074E+06  6.681439E+06
 7.089807E+06  7.050170E+06  6.991229E+06  6.927398E+06  6.865915E+06  6.809537E+06  6.758831E+06  6.713469E+06  6.672831E+06  6.636279E+06


SCALARS Temperature          float 1
LOOKUP_TABLE default
 1.500609E+02  1.500500E+02  1.500400E+02  1.500335E+02  1.500291E+02  1.500247E+02  1.500198E+02  1.500149E+02  1.500104E+02  1.500066E+02
 1.500821E+02  1.500791E+02  1.500647E+02  1.500472E+02  1.500345E+02  1.500263E+02  1.500202E+02  1.500150E+02  1.500104E+02  1.500066E+02
 1.500854E+02  1.500936E+02  1.500884E+02  1.500672E+02  1.500453E+02  1.500306E+02  1.500216E+02  1.500154E+02  1.500106E+02  1.500066E+02
 1.500819E+02  1.500975E+02  1.501044E+02  1.500880E+02  1.500600E+02  1.500377E+02  1.500243E+02  1.500164E+02  1.500109E+02  1.500068E+02
 1.500722E+02  1.500972E+02  1.501140E+02  1.501062E+02  1.500765E+02  1.500469E+02  1.500282E+02  1.500177E+02  1.500114E+02  1.500070E+02
 1.500512E+02  1.500950E+02  1.501206E+02  1.501214E+02  1.500929E+02  1.500575E+02  1.500329E+02  1.500194E+02  1.500120E+02  1.500072E+02
 1.500085E+02  1.500930E+02  1.501274E+02  1.501348E+02  1.501086E+02  1.500684E+02  1.500381E+02  1.500214E+02  1.500127E+02  1.500074E+02
 1.500029E+02  1.501000E+02  1.501376E+02  1.501481E+02  1.501231E+02  1.500789E+02  1.500433E+02  1.500234E+02  1.500134E+02  1.500077E+02
 1.500011E+02  1.501049E+02  1.501451E+02  1.501578E+02  1.501340E+02  1.500872E+02  1.500475E+02  1.500251E+02  1.500140E+02  1.500079E+02
 1.500011E+02  1.501084E+02  1.501504E+02  1.501645E+02  1.501414E+02  1.500927E+02  1.500504E+02  1.500262E+02  1.500144E+02  1.500080E+02
 1.500011E+02  1.501084E+02  1.501504E+02  1.501645E+02  1.501414E+02  1.500927E+02  1.500504E+02  1.500262E+02  1.500144E+02  1.500080E+02
 1.500025E+02  1.501081E+02  1.501498E+02  1.501632E+02  1.501390E+02  1.500905E+02  1.500493E+02  1.500259E+02  1.500143E+02  1.500080E+02
 1.500058E+02  1.501069E+02  1.501475E+02  1.501593E+02  1.501329E+02  1.500853E+02  1.500466E+02  1.500249E+02  1.500140E+02  1.500079E+02
 1.500136E+02  1.501045E+02  1.501433E+02  1.501521E+02  1.501229E+02  1.500774E+02  1.500427E+02  1.500235E+02  1.500136E+02  1.500077E+02
 1.500695E+02  1.501174E+02  1.501460E+02  1.501462E+02  1.501118E+02  1.500686E+02  1.500383E+02  1.500219E+02  1.500130E+02  1.500075E+02
 1.501037E+02  1.501317E+02  1.501499E+02  1.501380E+02  1.500984E+02  1.500590E+02  1.500338E+02  1.500202E+02  1.500125E+02  1.500073E+02
 1.501267E+02  1.501444E+02  1.501496E+02  1.501237E+02  1.500823E+02  1.500491E+02  1.500295E+02  1.500186E+02  1.500119E+02  1.500071E+02
 1.501431E+02  1.501510E+02  1.501379E+02  1.501015E+02  1.500646E+02  1.500401E+02  1.500259E+02  1.500173E+02  1.500114E+02  1.500069E+02
 1.501494E+02  1.501387E+02  1.501086E+02  1.500738E+02  1.500483E+02  1.500328E+02  1.500231E+02  1.500163E+02  1.500110E+02  1.500068E+02
 1.501175E+02  1.500915E+02  1.500661E+02  1.500478E+02  1.500362E+02  1.500280E+02  1.500213E+02  1.500156E+02  1.500108E+02  1.500067E+02


SCALARS pH                   float 1
LOOKUP_TABLE default
 6.145419E+00  6.145226E+00  6.144933E+00  6.144621E+00  6.144385E+00  6.144250E+00  6.144187E+00  6.144161E+00  6.144149E+00  6.144142E+00
 6.145576E+00  6.145540E+00  6.145363E+00  6.145022E+00  6.144648E+00  6.144378E+00  6.144235E+00  6.144175E+00  6.144153E+00  6.144142E+00
 6.145554E+00  6.145593E+00  6.145537E+00  6.145295E+00  6.144901E+00  6.144534E+00  6.144305E+00  6.144199E+00  6.144159E+00  6.144144E+00
 6.145280E+00  6.145581E+00  6.145594E+00  6.145454E+00  6.145107E+00  6.144694E+00  6.144389E+00  6.144231E+00  6.144169E+00  6.144146E+00
 6.142305E+00  6.145451E+00  6.145606E+00  6.145539E+00  6.145259E+00  6.144839E+00  6.144478E+00  6.144270E+00  6.144181E+00  6.144149E+00
 6.118812E+00  6.144339E+00  6.145575E+00  6.145584E+00  6.145364E+00  6.144960E+00  6.144562E+00  6.144310E+00  6.144196E+00  6.144153E+00
 5.995993E+00  6.137674E+00  6.145370E+00  6.145609E+00  6.145437E+00  6.145053E+00  6.144633E+00  6.144347E+00  6.144209E+00  6.144157E+00
 5.995983E+00  6.136052E+00  6.145288E+00  6.145632E+00  6.145489E+00  6.145121E+00  6.144688E+00  6.144376E+00  6.144221E+00  6.144161E+00
 5.995984E+00  6.135297E+00  6.145241E+00  6.145649E+00  6.145524E+00  6.145168E+00  6.144727E+00  6.144398E+00  6.144229E+00  6.144163E+00
 5.995985E+00  6.134993E+00  6.145220E+00  6.145658E+00  6.145543E+00  6.145193E+00  6.144748E+00  6.144410E+00  6.144234E+00  6.144165E+00
 5.995981E+00  6.134988E+00  6.145217E+00  6.145656E+00  6.145541E+00  6.145192E+00  6.144748E+00  6.144410E+00  6.144234E+00  6.144165E+00
 5.995977E+00  6.135288E+00  6.145236E+00  6.145647E+00  6.145523E+00  6.145167E+00  6.144727E+00  6.144398E+00  6.144230E+00  6.144164E+00
 5.995975E+00  6.136042E+00  6.145283E+00  6.145631E+00  6.145489E+00  6.145120E+00  6.144688E+00  6.144377E+00  6.144221E+00  6.144161E+00
 5.995988E+00  6.137664E+00  6.145368E+00  6.145610E+00  6.145437E+00  6.145052E+00  6.144633E+00  6.144347E+00  6.144210E+00  6.144158E+00
 6.118818E+00  6.144340E+00  6.145581E+00  6.145591E+00  6.145368E+00  6.144960E+00  6.144562E+00  6.144311E+00  6.144196E+00  6.144154E+00
 6.142317E+00  6.145465E+00  6.145623E+00  6.145552E+00  6.145264E+00  6.144841E+00  6.144479E+00  6.144271E+00  6.144182E+00  6.144150E+00
 6.145303E+00  6.145608E+00  6.145619E+00  6.145469E+00  6.145112E+00  6.144695E+00  6.144390E+00  6.144233E+00  6.144169E+00  6.144146E+00
 6.145589E+00  6.145629E+00  6.145563E+00  6.145307E+00  6.144904E+00  6.144535E+00  6.144306E+00  6.144200E+00  6.144160E+00  6.144144E+00
 6.145617E+00  6.145573E+00  6.145380E+00  6.145027E+00  6.144649E+00  6.144378E+00  6.144235E+00  6.144176E+00  6.144153E+00  6.144142E+00
 6.145442E+00  6.145236E+00  6.144933E+00  6.144618E+00  6.144382E+00  6.144248E+00  6.144187E+00  6.144161E+00  6.144149E+00  6.144142E+00


SCALARS Total_H+             float 1
LOOKUP_TABLE default
-3.049595E-03 -3.050586E-03 -3.052310E-03 -3.054227E-03 -3.055742E-03 -3.056680E-03 -3.057195E-03 -3.057486E-03 -3.057678E-03 -3.057827E-03
-3.049026E-03 -3.048682E-03 -3.049517E-03 -3.051624E-03 -3.054043E-03 -3.055859E-03 -3.056890E-03 -3.057397E-03 -3.057657E-03 -3.057823E-03
-3.049612E-03 -3.048616E-03 -3.048374E-03 -3.049756E-03 -3.052342E-03 -3.054820E-03 -3.056426E-03 -3.057238E-03 -3.057613E-03 -3.057812E-03
-3.049379E-03 -3.049015E-03 -3.048080E-03 -3.048604E-03 -3.050883E-03 -3.053717E-03 -3.055851E-03 -3.057013E-03 -3.057543E-03 -3.057793E-03
-3.034286E-03 -3.049110E-03 -3.048127E-03 -3.047947E-03 -3.049736E-03 -3.052672E-03 -3.055226E-03 -3.056743E-03 -3.057453E-03 -3.057768E-03
-2.903341E-03 -3.043852E-03 -3.048155E-03 -3.047556E-03 -3.048865E-03 -3.051756E-03 -3.054617E-03 -3.056457E-03 -3.057349E-03 -3.057737E-03
-2.291721E-03 -3.006537E-03 -3.047168E-03 -3.047231E-03 -3.048178E-03 -3.050988E-03 -3.054074E-03 -3.056186E-03 -3.057247E-03 -3.057706E-03
-2.291661E-03 -2.997113E-03 -3.046428E-03 -3.046844E-03 -3.047587E-03 -3.050358E-03 -3.053625E-03 -3.055959E-03 -3.057160E-03 -3.057679E-03
-2.291600E-03 -2.992614E-03 -3.045907E-03 -3.046545E-03 -3.047161E-03 -3.049902E-03 -3.053294E-03 -3.055788E-03 -3.057092E-03 -3.057657E-03
-2.291582E-03 -2.990765E-03 -3.045611E-03 -3.046340E-03 -3.046891E-03 -3.049628E-03 -3.053099E-03 -3.055687E-03 -3.057052E-03 -3.057644E-03
-2.291624E-03 -2.990799E-03 -3.045635E-03 -3.046357E-03 -3.046901E-03 -3.049631E-03 -3.053098E-03 -3.055684E-03 -3.057050E-03 -3.057643E-03
-2.291707E-03 -2.992618E-03 -3.045829E-03 -3.046424E-03 -3.047045E-03 -3.049823E-03 -3.053250E-03 -3.055764E-03 -3.057080E-03 -3.057652E-03
-2.291825E-03 -2.997066E-03 -3.046227E-03 -3.046573E-03 -3.047345E-03 -3.050201E-03 -3.053542E-03 -3.055917E-03 -3.057139E-03 -3.057670E-03
-2.291922E-03 -3.006390E-03 -3.046803E-03 -3.046791E-03 -3.047811E-03 -3.050763E-03 -3.053959E-03 -3.056130E-03 -3.057220E-03 -3.057695E-03
-2.903141E-03 -3.043345E-03 -3.047489E-03 -3.046884E-03 -3.048363E-03 -3.051469E-03 -3.054476E-03 -3.056389E-03 -3.057317E-03 -3.057724E-03
-3.033573E-03 -3.048191E-03 -3.047120E-03 -3.047057E-03 -3.049142E-03 -3.052356E-03 -3.055076E-03 -3.056672E-03 -3.057419E-03 -3.057754E-03
-3.048179E-03 -3.047681E-03 -3.046776E-03 -3.047597E-03 -3.050280E-03 -3.053415E-03 -3.055709E-03 -3.056946E-03 -3.057511E-03 -3.057780E-03
-3.047958E-03 -3.046938E-03 -3.046946E-03 -3.048803E-03 -3.051827E-03 -3.054572E-03 -3.056309E-03 -3.057181E-03 -3.057586E-03 -3.057800E-03
-3.047066E-03 -3.046960E-03 -3.048290E-03 -3.050915E-03 -3.053687E-03 -3.055690E-03 -3.056808E-03 -3.057357E-03 -3.057637E-03 -3.057814E-03
-3.048009E-03 -3.049460E-03 -3.051641E-03 -3.053882E-03 -3.055576E-03 -3.056602E-03 -3.057157E-03 -3.057467E-03 -3.057668E-03 -3.057822E-03


SCALARS Total_SiO2(aq)       float 1
LOOKUP_TABLE default
 1.040060E-02  1.039691E-02  1.039560E-02  1.039494E-02  1.039453E-02  1.039414E-02  1.039373E-02  1.039331E-02  1.039293E-02  1.039260E-02
 1.042821E-02  1.040363E-02  1.039835E-02  1.039625E-02  1.039504E-02  1.039430E-02  1.039376E-02  1.039332E-02  1.039293E-02  1.039260E-02
 1.053721E-02  1.042572E-02  1.040342E-02  1.039838E-02  1.039607E-02  1.039471E-02  1.039390E-02  1.039336E-02  1.039294E-02  1.039260E-02
 1.083612E-02  1.049636E-02  1.041648E-02  1.040165E-02  1.039752E-02  1.039537E-02  1.039415E-02  1.039344E-02  1.039297E-02  1.039261E-02
 1.141453E-02  1.066843E-02  1.045055E-02  1.040781E-02  1.039946E-02  1.039624E-02  1.039451E-02  1.039357E-02  1.039301E-02  1.039263E-02
 1.222749E-02  1.098222E-02  1.052150E-02  1.041983E-02  1.040211E-02  1.039728E-02  1.039494E-02  1.039373E-02  1.039307E-02  1.039265E-02
 1.306263E-02  1.139191E-02  1.062542E-02  1.043817E-02  1.040555E-02  1.039845E-02  1.039543E-02  1.039391E-02  1.039313E-02  1.039267E-02
 1.306164E-02  1.150119E-02  1.067858E-02  1.045085E-02  1.040842E-02  1.039953E-02  1.039590E-02  1.039409E-02  1.039319E-02  1.039269E-02
 1.306107E-02  1.154982E-02  1.070965E-02  1.045955E-02  1.041057E-02  1.040039E-02  1.039629E-02  1.039424E-02  1.039325E-02  1.039271E-02
 1.306096E-02  1.156953E-02  1.072429E-02  1.046415E-02  1.041185E-02  1.040095E-02  1.039656E-02  1.039435E-02  1.039328E-02  1.039273E-02
 1.306121E-02  1.156959E-02  1.072429E-02  1.046414E-02  1.041185E-02  1.040094E-02  1.039655E-02  1.039435E-02  1.039328E-02  1.039273E-02
 1.306186E-02  1.155024E-02  1.071003E-02  1.045999E-02  1.041098E-02  1.040067E-02  1.039645E-02  1.039431E-02  1.039328E-02  1.039272E-02
 1.306294E-02  1.150197E-02  1.067937E-02  1.045176E-02  1.040924E-02  1.040009E-02  1.039619E-02  1.039422E-02  1.039325E-02  1.039272E-02
 1.306441E-02  1.139305E-02  1.062668E-02  1.043958E-02  1.040676E-02  1.039923E-02  1.039583E-02  1.039409E-02  1.039321E-02  1.039270E-02
 1.222936E-02  1.098397E-02  1.052350E-02  1.042189E-02  1.040372E-02  1.039825E-02  1.039542E-02  1.039394E-02  1.039316E-02  1.039268E-02
 1.141695E-02  1.067106E-02  1.045344E-02  1.041048E-02  1.040135E-02  1.039729E-02  1.039500E-02  1.039379E-02  1.039311E-02  1.039266E-02
 1.083950E-02  1.050005E-02  1.042021E-02  1.040469E-02  1.039946E-02  1.039637E-02  1.039461E-02  1.039365E-02  1.039306E-02  1.039265E-02
 1.054176E-02  1.043041E-02  1.040761E-02  1.040135E-02  1.039776E-02  1.039554E-02  1.039428E-02  1.039353E-02  1.039301E-02  1.039263E-02
 1.043376E-02  1.040867E-02  1.040214E-02  1.039858E-02  1.039627E-02  1.039488E-02  1.039403E-02  1.039343E-02  1.039298E-02  1.039262E-02