# vtk DataFile Version 2.0
PFLOTRAN output
ASCII
DATASET UNSTRUCTURED_GRID
POINTS          462 float
 0.000000E+00  0.000000E+00  0.000000E+00
 1.000000E+01  0.000000E+00  0.000000E+00
 2.000000E+01  0.000000E+00  0.000000E+00
 3.000000E+01  0.000000E+00  0.000000E+00
 4.000000E+01  0.000000E+00  0.000000E+00
 5.000000E+01  0.000000E+00  0.000000E+00
 6.000000E+01  0.000000E+00  0.000000E+00
 7.000000E+01  0.000000E+00  0.000000E+00
 8.000000E+01  0.000000E+00  0.000000E+00
 9.000000E+01  0.000000E+00  0.000000E+00
 1.000000E+02  0.000000E+00  0.000000E+00
 0.000000E+00  1.000000E+00  0.000000E+00
 1.000000E+01  1.000000E+00  0.000000E+00
 2.000000E+01  1.000000E+00  0.000000E+00
 3.000000E+01  1.000000E+00  0.000000E+00
 4.000000E+01  1.000000E+00  0.000000E+00
 5.000000E+01  1.000000E+00  0.000000E+00
 6.000000E+01  1.000000E+00  0.000000E+00
 7.000000E+01  1.000000E+00  0.000000E+00
 8.000000E+01  1.000000E+00  0.000000E+00
 9.000000E+01  1.000000E+00  0.000000E+00
 1.000000E+02  1.000000E+00  0.000000E+00
 0.000000E+00  0.000000E+00  5.000000E+00
 1.000000E+01  0.000000E+00  5.000000E+00
 2.000000E+01  0.000000E+00  5.000000E+00
 3.000000E+01  0.000000E+00  5.000000E+00
 4.000000E+01  0.000000E+00  5.000000E+00
 5.000000E+01  0.000000E+00  5.000000E+00
 6.000000E+01  0.000000E+00  5.000000E+00
 7.000000E+01  0.000000E+00  5.000000E+00
 8.000000E+01  0.000000E+00  5.000000E+00
 9.000000E+01  0.000000E+00  5.000000E+00
 1.000000E+02  0.000000E+00  5.000000E+00
 0.000000E+00  1.000000E+00  5.000000E+00
 1.000000E+01  1.000000E+00  5.000000E+00
 2.000000E+01  1.000000E+00  5.000000E+00
 3.000000E+01  1.000000E+00  5.000000E+00
 4.000000E+01  1.000000E+00  5.000000E+00
 5.000000E+01  1.000000E+00  5.000000E+00
 6.000000E+01  1.000000E+00  5.000000E+00
 7.000000E+01  1.000000E+00  5.000000E+00
 8.000000E+01  1.000000E+00  5.000000E+00
 9.000000E+01  1.000000E+00  5.000000E+00
 1.000000E+02  1.000000E+00  5.000000E+00
 0.000000E+00  0.000000E+00  1.000000E+01
 1.000000E+01  0.000000E+00  1.000000E+01
 2.000000E+01  0.000000E+00  1.000000E+01
 3.000000E+01  0.000000E+00  1.000000E+01
 4.000000E+01  0.000000E+00  1.000000E+01
 5.000000E+01  0.000000E+00  1.000000E+01
 6.000000E+01  0.000000E+00  1.000000E+01
 7.000000E+01  0.000000E+00  1.000000E+01
 8.000000E+01  0.000000E+00  1.000000E+01
 9.000000E+01  0.000000E+00  1.000000E+01
 1.000000E+02  0.000000E+00  1.000000E+01
 0.000000E+00  1.000000E+00  1.000000E+01
 1.000000E+01  1.000000E+00  1.000000E+01
 2.000000E+01  1.000000E+00  1.000000E+01
 3.000000E+01  1.000000E+00  1.000000E+01
 4.000000E+01  1.000000E+00  1.000000E+01
 5.000000E+01  1.000000E+00  1.000000E+01
 6.000000E+01  1.000000E+00  1.000000E+01
 7.000000E+01  1.000000E+00  1.000000E+01
 8.000000E+01  1.000000E+00  1.000000E+01
 9.000000E+01  1.000000E+00  1.000000E+01
 1.000000E+02  1.000000E+00  1.000000E+01
 0.000000E+00  0.000000E+00  1.500000E+01
 1.000000E+01  0.000000E+00  1.500000E+01
 2.000000E+01  0.000000E+00  1.500000E+01
 3.000000E+01  0.000000E+00  1.500000E+01
 4.000000E+01  0.000000E+00  1.500000E+01
 5.000000E+01  0.000000E+00  1.500000E+01
 6.000000E+01  0.000000E+00  1.500000E+01
 7.000000E+01  0.000000E+00  1.500000E+01
 8.000000E+01  0.000000E+00  1.500000E+01
 9.000000E+01  0.000000E+00  1.500000E+01
 1.000000E+02  0.000000E+00  1.500000E+01
 0.000000E+00  1.000000E+00  1.500000E+01
 1.000000E+01  1.000000E+00  1.500000E+01
 2.000000E+01  1.000000E+00  1.500000E+01
 3.000000E+01  1.000000E+00  1.500000E+01
 4.000000E+01  1.000000E+00  1.500000E+01
 5.000000E+01  1.000000E+00  1.500000E+01
 6.000000E+01  1.000000E+00  1.500000E+01
 7.000000E+01  1.000000E+00  1.500000E+01
 8.000000E+01  1.000000E+00  1.500000E+01
 9.000000E+01  1.000000E+00  1.500000E+01
 1.000000E+02  1.000000E+00  1.500000E+01
 0.000000E+00  0.000000E+00  2.000000E+01
 1.000000E+01  0.000000E+00  2.000000E+01
 2.000000E+01  0.000000E+00  2.000000E+01
 3.000000E+01  0.000000E+00  2.000000E+01
 4.000000E+01  0.000000E+00  2.000000E+01
 5.000000E+01  0.000000E+00  2.000000E+01
 6.000000E+01  0.000000E+00  2.000000E+01
 7.000000E+01  0.000000E+00  2.000000E+01
 8.000000E+01  0.000000E+00  2.000000E+01
 9.000000E+01  0.000000E+00  2.000000E+01
 1.000000E+02  0.000000E+00  2.000000E+01
 0.000000E+00  1.000000E+00  2.000000E+01
 1.000000E+01  1.000000E+00  2.000000E+01
 2.000000E+01  1.000000E+00  2.000000E+01
 3.000000E+01  1.000000E+00  2.000000E+01
 4.000000E+01  1.000000E+00  2.000000E+01
 5.000000E+01  1.000000E+00  2.000000E+01
 6.000000E+01  1.000000E+00  2.000000E+01
 7.000000E+01  1.000000E+00  2.000000E+01
 8.000000E+01  1.000000E+00  2.000000E+01
 9.000000E+01  1.000000E+00  2.000000E+01
 1.000000E+02  1.000000E+00  2.000000E+01
 0.000000E+00  0.000000E+00  2.500000E+01
 1.000000E+01  0.000000E+00  2.500000E+01
 2.000000E+01  0.000000E+00  2.500000E+01
 3.000000E+01  0.000000E+00  2.500000E+01
 4.000000E+01  0.000000E+00  2.500000E+01
 5.000000E+01  0.000000E+00  2.500000E+01
 6.000000E+01  0.000000E+00  2.500000E+01
 7.000000E+01  0.000000E+00  2.500000E+01
 8.000000E+01  0.000000E+00  2.500000E+01
 9.000000E+01  0.000000E+00  2.500000E+01
 1.000000E+02  0.000000E+00  2.500000E+01
 0.000000E+00  1.000000E+00  2.500000E+01
 1.000000E+01  1.000000E+00  2.500000E+01
 2.000000E+01  1.000000E+00  2.500000E+01
 3.000000E+01  1.000000E+00  2.500000E+01
 4.000000E+01  1.000000E+00  2.500000E+01
 5.000000E+01  1.000000E+00  2.500000E+01
 6.000000E+01  1.000000E+00  2.500000E+01
 7.000000E+01  1.000000E+00  2.500000E+01
 8.000000E+01  1.000000E+00  2.500000E+01
 9.000000E+01  1.000000E+00  2.500000E+01
 1.000000E+02  1.000000E+00  2.500000E+01
 0.000000E+00  0.000000E+00  3.000000E+01
 1.000000E+01  0.000000E+00  3.000000E+01
 2.000000E+01  0.000000E+00  3.000000E+01
 3.000000E+01  0.000000E+00  3.000000E+01
 4.000000E+01  0.000000E+00  3.000000E+01
 5.000000E+01  0.000000E+00  3.000000E+01
 6.000000E+01  0.000000E+00  3.000000E+01
 7.000000E+01  0.000000E+00  3.000000E+01
 8.000000E+01  0.000000E+00  3.000000E+01
 9.000000E+01  0.000000E+00  3.000000E+01
 1.000000E+02  0.000000E+00  3.000000E+01
 0.000000E+00  1.000000E+00  3.000000E+01
 1.000000E+01  1.000000E+00  3.000000E+01
 2.000000E+01  1.000000E+00  3.000000E+01
 3.000000E+01  1.000000E+00  3.000000E+01
 4.000000E+01  1.000000E+00  3.000000E+01
 5.000000E+01  1.000000E+00  3.000000E+01
 6.000000E+01  1.000000E+00  3.000000E+01
 7.000000E+01  1.000000E+00  3.000000E+01
 8.000000E+01  1.000000E+00  3.000000E+01
 9.000000E+01  1.000000E+00  3.000000E+01
 1.000000E+02  1.000000E+00  3.000000E+01
 0.000000E+00  0.000000E+00  3.500000E+01
 1.000000E+01  0.000000E+00  3.500000E+01
 2.000000E+01  0.000000E+00  3.500000E+01
 3.000000E+01  0.000000E+00  3.500000E+01
 4.000000E+01  0.000000E+00  3.500000E+01
 5.000000E+01  0.000000E+00  3.500000E+01
 6.000000E+01  0.000000E+00  3.500000E+01
 7.000000E+01  0.000000E+00  3.500000E+01
 8.000000E+01  0.000000E+00  3.500000E+01
 9.000000E+01  0.000000E+00  3.500000E+01
 1.000000E+02  0.000000E+00  3.500000E+01
 0.000000E+00  1.000000E+00  3.500000E+01
 1.000000E+01  1.000000E+00  3.500000E+01
 2.000000E+01  1.000000E+00  3.500000E+01
 3.000000E+01  1.000000E+00  3.500000E+01
 4.000000E+01  1.000000E+00  3.500000E+01
 5.000000E+01  1.000000E+00  3.500000E+01
 6.000000E+01  1.000000E+00  3.500000E+01
 7.000000E+01  1.000000E+00  3.500000E+01
 8.000000E+01  1.000000E+00  3.500000E+01
 9.000000E+01  1.000000E+00  3.500000E+01
 1.000000E+02  1.000000E+00  3.500000E+01
 0.000000E+00  0.000000E+00  4.000000E+01
 1.000000E+01  0.000000E+00  4.000000E+01
 2.000000E+01  0.000000E+00  4.000000E+01
 3.000000E+01  0.000000E+00  4.000000E+01
 4.000000E+01  0.000000E+00  4.000000E+01
 5.000000E+01  0.000000E+00  4.000000E+01
 6.000000E+01  0.000000E+00  4.000000E+01
 7.000000E+01  0.000000E+00  4.000000E+01
 8.000000E+01  0.000000E+00  4.000000E+01
 9.000000E+01  0.000000E+00  4.000000E+01
 1.000000E+02  0.000000E+00  4.000000E+01
 0.000000E+00  1.000000E+00  4.000000E+01
 1.000000E+01  1.000000E+00  4.000000E+01
 2.000000E+01  1.000000E+00  4.000000E+01
 3.000000E+01  1.000000E+00  4.000000E+01
 4.000000E+01  1.000000E+00  4.000000E+01
 5.000000E+01  1.000000E+00  4.000000E+01
 6.000000E+01  1.000000E+00  4.000000E+01
 7.000000E+01  1.000000E+00  4.000000E+01
 8.000000E+01  1.000000E+00  4.000000E+01
 9.000000E+01  1.000000E+00  4.000000E+01
 1.000000E+02  1.000000E+00  4.000000E+01
 0.000000E+00  0.000000E+00  4.500000E+01
 1.000000E+01  0.000000E+00  4.500000E+01
 2.000000E+01  0.000000E+00  4.500000E+01
 3.000000E+01  0.000000E+00  4.500000E+01
 4.000000E+01  0.000000E+00  4.500000E+01
 5.000000E+01  0.000000E+00  4.500000E+01
 6.000000E+01  0.000000E+00  4.500000E+01
 7.000000E+01  0.000000E+00  4.500000E+01
 8.000000E+01  0.000000E+00  4.500000E+01
 9.000000E+01  0.000000E+00  4.500000E+01
 1.000000E+02  0.000000E+00  4.500000E+01
 0.000000E+00  1.000000E+00  4.500000E+01
 1.000000E+01  1.000000E+00  4.500000E+01
 2.000000E+01  1.000000E+00  4.500000E+01
 3.000000E+01  1.000000E+00  4.500000E+01
 4.000000E+01  1.000000E+00  4.500000E+01
 5.000000E+01  1.000000E+00  4.500000E+01
 6.000000E+01  1.000000E+00  4.500000E+01
 7.000000E+01  1.000000E+00  4.500000E+01
 8.000000E+01  1.000000E+00  4.500000E+01
 9.000000E+01  1.000000E+00  4.500000E+01
 1.000000E+02  1.000000E+00  4.500000E+01
 0.000000E+00  0.000000E+00  5.000000E+01
 1.000000E+01  0.000000E+00  5.000000E+01
 2.000000E+01  0.000000E+00  5.000000E+01
 3.000000E+01  0.000000E+00  5.000000E+01
 4.000000E+01  0.000000E+00  5.000000E+01
 5.000000E+01  0.000000E+00  5.000000E+01
 6.000000E+01  0.000000E+00  5.000000E+01
 7.000000E+01  0.000000E+00  5.000000E+01
 8.000000E+01  0.000000E+00  5.000000E+01
 9.000000E+01  0.000000E+00  5.000000E+01
 1.000000E+02  0.000000E+00  5.000000E+01
 0.000000E+00  1.000000E+00  5.000000E+01
 1.000000E+01  1.000000E+00  5.000000E+01
 2.000000E+01  1.000000E+00  5.000000E+01
 3.000000E+01  1.000000E+00  5.000000E+01
[...]
CELL_DATA      200
SCALARS Porosity             float 1
LOOKUP_TABLE default
 4.377041E-01  4.377091E-01  4.377099E-01  4.377100E-01  4.377100E-01  4.377099E-01  4.377099E-01  4.377099E-01  4.377099E-01  4.377099E-01
 4.376568E-01  4.377015E-01  4.377089E-01  4.377098E-01  4.377099E-01  4.377099E-01  4.377099E-01  4.377099E-01  4.377099E-01  4.377099E-01
 4.374573E-01  4.376632E-01  4.377033E-01  4.377092E-01  4.377099E-01  4.377099E-01  4.377099E-01  4.377099E-01  4.377099E-01  4.377099E-01
 4.369196E-01  4.375342E-01  4.376819E-01  4.377065E-01  4.377096E-01  4.377099E-01  4.377099E-01  4.377099E-01  4.377099E-01  4.377099E-01
 4.360522E-01  4.372232E-01  4.376208E-01  4.376981E-01  4.377087E-01  4.377098E-01  4.377099E-01  4.377099E-01  4.377099E-01  4.377099E-01
 4.360784E-01  4.367168E-01  4.374929E-01  4.376784E-01  4.377065E-01  4.377096E-01  4.377099E-01  4.377099E-01  4.377099E-01  4.377099E-01
 4.396551E-01  4.364095E-01  4.373156E-01  4.376470E-01  4.377027E-01  4.377093E-01  4.377099E-01  4.377099E-01  4.377099E-01  4.377098E-01
 4.396563E-01  4.363188E-01  4.372255E-01  4.376259E-01  4.376997E-01  4.377090E-01  4.377098E-01  4.377099E-01  4.377099E-01  4.377098E-01
 4.396571E-01  4.362812E-01  4.371733E-01  4.376115E-01  4.376975E-01  4.377087E-01  4.377098E-01  4.377099E-01  4.377099E-01  4.377098E-01
 4.396572E-01  4.362661E-01  4.371489E-01  4.376042E-01  4.376963E-01  4.377086E-01  4.377098E-01  4.377099E-01  4.377099E-01  4.377098E-01
 4.396568E-01  4.362660E-01  4.371490E-01  4.376042E-01  4.376963E-01  4.377086E-01  4.377098E-01  4.377099E-01  4.377099E-01  4.377098E-01
 4.396559E-01  4.362809E-01  4.371733E-01  4.376116E-01  4.376975E-01  4.377087E-01  4.377098E-01  4.377099E-01  4.377099E-01  4.377098E-01
 4.396544E-01  4.363183E-01  4.372255E-01  4.376260E-01  4.376997E-01  4.377090E-01  4.377098E-01  4.377099E-01  4.377099E-01  4.377098E-01
 4.396527E-01  4.364091E-01  4.373157E-01  4.376472E-01  4.377027E-01  4.377093E-01  4.377099E-01  4.377099E-01  4.377099E-01  4.377098E-01
 4.360771E-01  4.367170E-01  4.374932E-01  4.376786E-01  4.377065E-01  4.377096E-01  4.377099E-01  4.377099E-01  4.377099E-01  4.377098E-01
 4.360523E-01  4.372237E-01  4.376211E-01  4.376982E-01  4.377088E-01  4.377098E-01  4.377099E-01  4.377099E-01  4.377099E-01  4.377099E-01
 4.369203E-01  4.375347E-01  4.376821E-01  4.377066E-01  4.377097E-01  4.377099E-01  4.377099E-01  4.377099E-01  4.377099E-01  4.377099E-01
 4.374578E-01  4.376636E-01  4.377035E-01  4.377093E-01  4.377099E-01  4.377099E-01  4.377099E-01  4.377099E-01  4.377099E-01  4.377099E-01
 4.376572E-01  4.377017E-01  4.377090E-01  4.377099E-01  4.377099E-01  4.377099E-01  4.377099E-01  4.377099E-01  4.377099E-01  4.377099E-01
 4.377042E-01  4.377092E-01  4.377099E-01  4.377099E-01  4.377099E-01  4.377099E-01  4.377099E-01  4.377099E-01  4.377099E-01  4.377099E-01


SCALARS Permeability         float 1
LOOKUP_TABLE default
 1.000000E-12  1.000000E-12  1.000000E-12  1.000000E-12  1.000000E-12  1.000000E-12  1.000000E-12  1.000000E-12  1.000000E-12  1.000000E-12
 1.000000E-12  1.000000E-12  1.000000E-12  1.000000E-12  1.000000E-12  1.000000E-12  1.000000E-12  1.000000E-12  1.000000E-12  1.000000E-12
 1.000000E-12  1.000000E-12  1.000000E-12  1.000000E-12  1.000000E-12  1.000000E-12  1.000000E-12  1.000000E-12  1.000000E-12  1.000000E-12
 1.000000E-12  1.000000E-12  1.000000E-12  1.000000E-12  1.000000E-12  1.000000E-12  1.000000E-12  1.000000E-12  1.000000E-12  1.000000E-12
 1.000000E-12  1.000000E-12  1.000000E-12  1.000000E-12  1.000000E-12  1.000000E-12  1.000000E-12  1.000000E-12  1.000000E-12  1.000000E-12
 1.000000E-12  1.000000E-12  1.000000E-12  1.000000E-12  1.000000E-12  1.000000E-12  1.000000E-12  1.000000E-12  1.000000E-12  1.000000E-12
 1.000000E-12  1.000000E-12  1.000000E-12  1.000000E-12  1.000000E-12  1.000000E-12  1.000000E-12  1.000000E-12  1.000000E-12  1.000000E-12
 1.000000E-12  1.000000E-12  1.000000E-12  1.000000E-12  1.000000E-12  1.000000E-12  1.000000E-12  1.000000E-12  1.000000E-12  1.000000E-12
 1.000000E-12  1.000000E-12  1.000000E-12  1.000000E-12  1.000000E-12  1.000000E-12  1.000000E-12  1.000000E-12  1.000000E-12  1.000000E-12
 1.000000E-12  1.000000E-12  1.000000E-12  1.000000E-12  1.000000E-12  1.000000E-12  1.000000E-12  1.000000E-12  1.000000E-12  1.000000E-12
 1.000000E-12  1.000000E-12  1.000000E-12  1.000000E-12  1.000000E-12  1.000000E-12  1.000000E-12  1.000000E-12  1.000000E-12  1.000000E-12
 1.000000E-12  1.000000E-12  1.000000E-12  1.000000E-12  1.000000E-12  1.000000E-12  1.000000E-12  1.000000E-12  1.000000E-12  1.000000E-12
 1.000000E-12  1.000000E-12  1.000000E-12  1.000000E-12  1.000000E-12  1.000000E-12  1.000000E-12  1.000000E-12  1.000000E-12  1.000000E-12
 1.000000E-12  1.000000E-12  1.000000E-12  1.000000E-12  1.000000E-12  1.000000E-12  1.000000E-12  1.000000E-12  1.000000E-12  1.000000E-12
 1.000000E-12  1.000000E-12  1.000000E-12  1.000000E-12  1.000000E-12  1.000000E-12  1.000000E-12  1.000000E-12  1.000000E-12  1.000000E-12
 1.000000E-12  1.000000E-12  1.000000E-12  1.000000E-12  1.000000E-12  1.000000E-12  1.000000E-12  1.000000E-12  1.000000E-12  1.000000E-12
 1.000000E-12  1.000000E-12  1.000000E-12  1.000000E-12  1.000000E-12  1.000000E-12  1.000000E-12  1.000000E-12  1.000000E-12  1.000000E-12
 1.000000E-12  1.000000E-12  1.000000E-12  1.000000E-12  1.000000E-12  1.000000E-12  1.000000E-12  1.000000E-12  1.000000E-12  1.000000E-12
 1.000000E-12  1.000000E-12  1.000000E-12  1.000000E-12  1.000000E-12  1.000000E-12  1.000000E-12  1.000000E-12  1.000000E-12  1.000000E-12
 1.000000E-12  1.000000E-12  1.000000E-12  1.000000E-12  1.000000E-12  1.000000E-12  1.000000E-12  1.000000E-12  1.000000E-12  1.000000E-12


SCALARS Liquid_Pressure      float 1
LOOKUP_TABLE default
 7.947436E+06  7.907765E+06  7.848785E+06  7.784926E+06  7.723434E+06  7.667063E+06  7.616378E+06  7.571044E+06  7.530437E+06  7.493916E+06
 7.922110E+06  7.875653E+06  7.810989E+06  7.743657E+06  7.680276E+06  7.622925E+06  7.571738E+06  7.526145E+06  7.485400E+06  7.448797E+06
 7.920011E+06  7.857354E+06  7.780463E+06  7.706071E+06  7.638968E+06  7.579714E+06  7.527562E+06  7.481475E+06  7.440467E+06  7.403707E+06
 7.949244E+06  7.854243E+06  7.756877E+06  7.671719E+06  7.599209E+06  7.537262E+06  7.483762E+06  7.436988E+06  7.395617E+06  7.358641E+06
 8.025986E+06  7.867755E+06  7.739369E+06  7.639838E+06  7.560547E+06  7.495326E+06  7.440210E+06  7.392622E+06  7.350820E+06  7.313591E+06
 8.181886E+06  7.897698E+06  7.726048E+06  7.609287E+06  7.522386E+06  7.453600E+06  7.396754E+06  7.348300E+06  7.306043E+06  7.268546E+06
 8.480030E+06  7.937515E+06  7.713434E+06  7.578551E+06  7.484025E+06  7.411747E+06  7.353228E+06  7.303942E+06  7.261251E+06  7.223499E+06
 8.628290E+06  7.961689E+06  7.696484E+06  7.545924E+06  7.444739E+06  7.369431E+06  7.309470E+06  7.259471E+06  7.216408E+06  7.178438E+06
 8.688595E+06  7.963289E+06  7.671682E+06  7.509954E+06  7.403891E+06  7.326357E+06  7.265338E+06  7.214818E+06  7.171485E+06  7.133356E+06
 8.690247E+06  7.941356E+06  7.637105E+06  7.469642E+06  7.361015E+06  7.282306E+06  7.220730E+06  7.169936E+06  7.126460E+06  7.088247E+06
 8.645037E+06  7.896184E+06  7.591948E+06  7.424493E+06  7.315870E+06  7.237164E+06  7.175589E+06  7.124796E+06  7.081321E+06  7.043108E+06
 8.552968E+06  7.827776E+06  7.536211E+06  7.374506E+06  7.268455E+06  7.190930E+06  7.129917E+06  7.079400E+06  7.036068E+06  6.997938E+06
 8.402270E+06  7.735842E+06  7.470702E+06  7.320178E+06  7.219014E+06  7.143721E+06  7.083768E+06  7.033774E+06  6.990713E+06  6.952741E+06
 8.163667E+06  7.621350E+06  7.397348E+06  7.262509E+06  7.168011E+06  7.095753E+06  7.037246E+06  6.987967E+06  6.945278E+06  6.907524E+06
 7.775283E+06  7.491236E+06  7.319665E+06  7.202954E+06  7.116086E+06  7.047323E+06  6.990492E+06  6.942047E+06  6.899793E+06  6.862293E+06
 7.529144E+06  7.371009E+06  7.242696E+06  7.143216E+06  7.063963E+06  6.998767E+06  6.943669E+06  6.896091E+06  6.854292E+06  6.817059E+06
 7.362152E+06  7.267220E+06  7.169919E+06  7.084812E+06  7.012342E+06  6.950424E+06  6.896943E+06  6.850181E+06  6.808813E+06  6.771832E+06
 7.242663E+06  7.180056E+06  7.103222E+06  7.028881E+06  6.961819E+06  6.902597E+06  6.850467E+06  6.804393E+06  6.763387E+06  6.726620E+06
 7.154493E+06  7.108078E+06  7.043467E+06  6.976186E+06  6.912848E+06  6.855531E+06  6.804368E+06  6.758788E+06  6.718046E+06  6.681433E+06
 7.089540E+06  7.049907E+06  6.990979E+06  6.927173E+06  6.865727E+06  6.809393E+06  6.758734E+06  6.713413E+06  6.672808E+06  6.636275E+06


SCALARS Temperature          float 1
LOOKUP_TABLE default
 1.500811E+02  1.500881E+02  1.500974E+02  1.501066E+02  1.501140E+02  1.501168E+02  1.501128E+02  1.501014E+02  1.500850E+02  1.500672E+02
 1.500849E+02  1.500935E+02  1.501041E+02  1.501146E+02  1.501238E+02  1.501297E+02  1.501290E+02  1.501189E+02  1.501005E+02  1.500781E+02
 1.500855E+02  1.500967E+02  1.501095E+02  1.501214E+02  1.501317E+02  1.501394E+02  1.501413E+02  1.501335E+02  1.501149E+02  1.500897E+02
 1.500820E+02  1.500980E+02  1.501141E+02  1.501279E+02  1.501394E+02  1.501482E+02  1.501521E+02  1.501464E+02  1.501285E+02  1.501015E+02
 1.500722E+02  1.500972E+02  1.501182E+02  1.501345E+02  1.501472E+02  1.501570E+02  1.501623E+02  1.501585E+02  1.501416E+02  1.501133E+02
 1.500512E+02  1.500950E+02  1.501226E+02  1.501417E+02  1.501557E+02  1.501663E+02  1.501726E+02  1.501703E+02  1.501543E+02  1.501251E+02
 1.500083E+02  1.500930E+02  1.501285E+02  1.501502E+02  1.501652E+02  1.501763E+02  1.501833E+02  1.501820E+02  1.501667E+02  1.501366E+02
 1.500027E+02  1.501000E+02  1.501383E+02  1.501605E+02  1.501757E+02  1.501868E+02  1.501940E+02  1.501934E+02  1.501784E+02  1.501474E+02
 1.500009E+02  1.501049E+02  1.501456E+02  1.501687E+02  1.501841E+02  1.501953E+02  1.502027E+02  1.502025E+02  1.501877E+02  1.501559E+02
 1.500009E+02  1.501084E+02  1.501509E+02  1.501747E+02  1.501905E+02  1.502019E+02  1.502094E+02  1.502093E+02  1.501945E+02  1.501621E+02
 1.500009E+02  1.501084E+02  1.501509E+02  1.501747E+02  1.501905E+02  1.502019E+02  1.502095E+02  1.502094E+02  1.501946E+02  1.501622E+02
 1.500023E+02  1.501081E+02  1.501504E+02  1.501745E+02  1.501905E+02  1.502021E+02  1.502097E+02  1.502094E+02  1.501941E+02  1.501612E+02
 1.500056E+02  1.501069E+02  1.501482E+02  1.501725E+02  1.501889E+02  1.502007E+02  1.502083E+02  1.502074E+02  1.501912E+02  1.501577E+02
 1.500134E+02  1.501046E+02  1.501445E+02  1.501689E+02  1.501857E+02  1.501977E+02  1.502051E+02  1.502034E+02  1.501860E+02  1.501519E+02
 1.500695E+02  1.501174E+02  1.501483E+02  1.501697E+02  1.501852E+02  1.501966E+02  1.502032E+02  1.501998E+02  1.501805E+02  1.501455E+02
 1.501037E+02  1.501318E+02  1.501552E+02  1.501732E+02  1.501871E+02  1.501975E+02  1.502026E+02  1.501968E+02  1.501747E+02  1.501385E+02
 1.501267E+02  1.501451E+02  1.501630E+02  1.501781E+02  1.501904E+02  1.501995E+02  1.502025E+02  1.501933E+02  1.501679E+02  1.501303E+02
 1.501434E+02  1.501566E+02  1.501707E+02  1.501835E+02  1.501943E+02  1.502018E+02  1.502016E+02  1.501877E+02  1.501586E+02  1.501202E+02
 1.501560E+02  1.501661E+02  1.501776E+02  1.501887E+02  1.501980E+02  1.502026E+02  1.501973E+02  1.501776E+02  1.501450E+02  1.501074E+02
 1.501654E+02  1.501734E+02  1.501831E+02  1.501922E+02  1.501979E+02  1.501960E+02  1.501823E+02  1.501564E+02  1.501232E+02  1.500902E+02


SCALARS pH                   float 1
LOOKUP_TABLE default
 6.145612E+00  6.145639E+00  6.145669E+00  6.145700E+00  6.145730E+00  6.145754E+00  6.145765E+00  6.145749E+00  6.145684E+00  6.145535E+00
 6.145589E+00  6.145618E+00  6.145647E+00  6.145678E+00  6.145710E+00  6.145740E+00  6.145760E+00  6.145761E+00  6.145724E+00  6.145612E+00
 6.145551E+00  6.145606E+00  6.145637E+00  6.145669E+00  6.145701E+00  6.145733E+00  6.145758E+00  6.145766E+00  6.145743E+00  6.145649E+00
 6.145205E+00  6.145581E+00  6.145631E+00  6.145664E+00  6.145697E+00  6.145729E+00  6.145757E+00  6.145771E+00  6.145756E+00  6.145673E+00
 6.141313E+00  6.145419E+00  6.145620E+00  6.145662E+00  6.145696E+00  6.145729E+00  6.145759E+00  6.145777E+00  6.145767E+00  6.145691E+00
 6.110643E+00  6.144003E+00  6.145574E+00  6.145662E+00  6.145699E+00  6.145733E+00  6.145765E+00  6.145784E+00  6.145779E+00  6.145707E+00
 5.959542E+00  6.135764E+00  6.145319E+00  6.145662E+00  6.145706E+00  6.145742E+00  6.145774E+00  6.145795E+00  6.145792E+00  6.145722E+00
 5.959524E+00  6.133678E+00  6.145210E+00  6.145673E+00  6.145720E+00  6.145755E+00  6.145787E+00  6.145809E+00  6.145807E+00  6.145737E+00
 5.959522E+00  6.132697E+00  6.145146E+00  6.145683E+00  6.145732E+00  6.145766E+00  6.145798E+00  6.145821E+00  6.145820E+00  6.145749E+00
 5.959523E+00  6.132301E+00  6.145117E+00  6.145689E+00  6.145740E+00  6.145774E+00  6.145806E+00  6.145829E+00  6.145829E+00  6.145756E+00
 5.959520E+00  6.132297E+00  6.145114E+00  6.145687E+00  6.145739E+00  6.145773E+00  6.145806E+00  6.145829E+00  6.145828E+00  6.145755E+00
 5.959519E+00  6.132689E+00  6.145141E+00  6.145681E+00  6.145733E+00  6.145768E+00  6.145801E+00  6.145824E+00  6.145822E+00  6.145748E+00
 5.959522E+00  6.133668E+00  6.145205E+00  6.145673E+00  6.145724E+00  6.145761E+00  6.145794E+00  6.145816E+00  6.145812E+00  6.145736E+00
 5.959545E+00  6.135754E+00  6.145316E+00  6.145666E+00  6.145715E+00  6.145752E+00  6.145786E+00  6.145807E+00  6.145800E+00  6.145722E+00
 6.110654E+00  6.144004E+00  6.145581E+00  6.145674E+00  6.145715E+00  6.145752E+00  6.145784E+00  6.145802E+00  6.145791E+00  6.145708E+00
 6.141326E+00  6.145434E+00  6.145639E+00  6.145686E+00  6.145723E+00  6.145758E+00  6.145788E+00  6.145802E+00  6.145784E+00  6.145694E+00
 6.145228E+00  6.145609E+00  6.145663E+00  6.145700E+00  6.145735E+00  6.145769E+00  6.145795E+00  6.145803E+00  6.145776E+00  6.145675E+00
 6.145587E+00  6.145647E+00  6.145683E+00  6.145717E+00  6.145751E+00  6.145782E+00  6.145804E+00  6.145802E+00  6.145764E+00  6.145648E+00
 6.145639E+00  6.145672E+00  6.145704E+00  6.145737E+00  6.145770E+00  6.145797E+00  6.145809E+00  6.145795E+00  6.145739E+00  6.145604E+00
 6.145671E+00  6.145701E+00  6.145733E+00  6.145764E+00  6.145791E+00  6.145808E+00  6.145803E+00  6.145767E+00  6.145681E+00  6.145514E+00


SCALARS Total_H+             float 1
LOOKUP_TABLE default
-3.047624E-03 -3.046443E-03 -3.045019E-03 -3.043403E-03 -3.041667E-03 -3.039906E-03 -3.038238E-03 -3.036790E-03 -3.035715E-03 -3.035283E-03
-3.048844E-03 -3.047754E-03 -3.046416E-03 -3.044848E-03 -3.043095E-03 -3.041238E-03 -3.039414E-03 -3.037781E-03 -3.036478E-03 -3.035748E-03
-3.049567E-03 -3.048429E-03 -3.047111E-03 -3.045591E-03 -3.043866E-03 -3.041986E-03 -3.040080E-03 -3.038335E-03 -3.036914E-03 -3.036058E-03
-3.048930E-03 -3.048959E-03 -3.047565E-03 -3.046053E-03 -3.044356E-03 -3.042479E-03 -3.040528E-03 -3.038701E-03 -3.037194E-03 -3.036268E-03
-3.028525E-03 -3.048903E-03 -3.047897E-03 -3.046340E-03 -3.044655E-03 -3.042789E-03 -3.040814E-03 -3.038928E-03 -3.037357E-03 -3.036394E-03
-2.858015E-03 -3.041885E-03 -3.047991E-03 -3.046481E-03 -3.044789E-03 -3.042935E-03 -3.040951E-03 -3.039026E-03 -3.037409E-03 -3.036433E-03
-2.134948E-03 -2.995525E-03 -3.046771E-03 -3.046445E-03 -3.044759E-03 -3.042921E-03 -3.040940E-03 -3.038993E-03 -3.037349E-03 -3.036381E-03
-2.134863E-03 -2.983473E-03 -3.045901E-03 -3.046210E-03 -3.044568E-03 -3.042765E-03 -3.040802E-03 -3.038849E-03 -3.037196E-03 -3.036253E-03
-2.134794E-03 -2.977705E-03 -3.045294E-03 -3.045993E-03 -3.044378E-03 -3.042599E-03 -3.040650E-03 -3.038696E-03 -3.037039E-03 -3.036121E-03
-2.134775E-03 -2.975338E-03 -3.044957E-03 -3.045823E-03 -3.044215E-03 -3.042445E-03 -3.040502E-03 -3.038549E-03 -3.036897E-03 -3.036006E-03
-2.134818E-03 -2.975372E-03 -3.044981E-03 -3.045840E-03 -3.044227E-03 -3.042452E-03 -3.040506E-03 -3.038551E-03 -3.036898E-03 -3.036006E-03
-2.134907E-03 -2.977711E-03 -3.045216E-03 -3.045861E-03 -3.044213E-03 -3.042414E-03 -3.040455E-03 -3.038503E-03 -3.036866E-03 -3.035995E-03
-2.135041E-03 -2.983431E-03 -3.045698E-03 -3.045912E-03 -3.044213E-03 -3.042376E-03 -3.040398E-03 -3.038454E-03 -3.036845E-03 -3.036000E-03
-2.135173E-03 -2.995383E-03 -3.046402E-03 -3.045949E-03 -3.044189E-03 -3.042309E-03 -3.040312E-03 -3.038384E-03 -3.036816E-03 -3.036003E-03
-2.857846E-03 -3.041379E-03 -3.047311E-03 -3.045695E-03 -3.043937E-03 -3.042046E-03 -3.040054E-03 -3.038170E-03 -3.036676E-03 -3.035923E-03
-3.027819E-03 -3.047982E-03 -3.046848E-03 -3.045206E-03 -3.043470E-03 -3.041579E-03 -3.039613E-03 -3.037806E-03 -3.036421E-03 -3.035763E-03
-3.047730E-03 -3.047611E-03 -3.046119E-03 -3.044545E-03 -3.042813E-03 -3.040925E-03 -3.039010E-03 -3.037320E-03 -3.036083E-03 -3.035552E-03
-3.047902E-03 -3.046652E-03 -3.045263E-03 -3.043700E-03 -3.041954E-03 -3.040085E-03 -3.038264E-03 -3.036743E-03 -3.035697E-03 -3.035321E-03
-3.046731E-03 -3.045558E-03 -3.044172E-03 -3.042580E-03 -3.040827E-03 -3.039025E-03 -3.037379E-03 -3.036099E-03 -3.035287E-03 -3.035096E-03
-3.045100E-03 -3.043870E-03 -3.042426E-03 -3.040820E-03 -3.039150E-03 -3.037569E-03 -3.036254E-03 -3.035319E-03 -3.034811E-03 -3.034881E-03


SCALARS Total_SiO2(aq)       float 1
LOOKUP_TABLE default
 1.040230E-02  1.040012E-02  1.040048E-02  1.040122E-02  1.040185E-02  1.040212E-02  1.040180E-02  1.040084E-02  1.039944E-02  1.039794E-02
 1.042881E-02  1.040483E-02  1.040161E-02  1.040196E-02  1.040270E-02  1.040322E-02  1.040319E-02  1.040235E-02  1.040078E-02  1.039890E-02
 1.053914E-02  1.042629E-02  1.040516E-02  1.040290E-02  1.040341E-02  1.040405E-02  1.040423E-02  1.040359E-02  1.040202E-02  1.039990E-02
 1.084219E-02  1.049767E-02  1.041743E-02  1.040494E-02  1.040421E-02  1.040481E-02  1.040515E-02  1.040470E-02  1.040319E-02  1.040092E-02
 1.142857E-02  1.067197E-02  1.045149E-02  1.041018E-02  1.040538E-02  1.040561E-02  1.040603E-02  1.040573E-02  1.040431E-02  1.040195E-02
 1.225183E-02  1.098966E-02  1.052313E-02  1.042166E-02  1.040734E-02  1.040651E-02  1.040692E-02  1.040674E-02  1.040540E-02  1.040297E-02
 1.309010E-02  1.140362E-02  1.062813E-02  1.043978E-02  1.041026E-02  1.040756E-02  1.040785E-02  1.040775E-02  1.040647E-02  1.040397E-02
 1.308911E-02  1.151435E-02  1.068193E-02  1.045238E-02  1.041280E-02  1.040863E-02  1.040878E-02  1.040872E-02  1.040747E-02  1.040490E-02
 1.308855E-02  1.156364E-02  1.071338E-02  1.046104E-02  1.041474E-02  1.040948E-02  1.040953E-02  1.040950E-02  1.040827E-02  1.040565E-02
 1.308843E-02  1.158362E-02  1.072820E-02  1.046564E-02  1.041595E-02  1.041012E-02  1.041011E-02  1.041009E-02  1.040886E-02  1.040618E-02
 1.308868E-02  1.158369E-02  1.072820E-02  1.046563E-02  1.041594E-02  1.041012E-02  1.041012E-02  1.041010E-02  1.040887E-02  1.040619E-02
 1.308933E-02  1.156407E-02  1.071376E-02  1.046150E-02  1.041527E-02  1.041006E-02  1.041013E-02  1.041009E-02  1.040882E-02  1.040610E-02
 1.309043E-02  1.151513E-02  1.068273E-02  1.045334E-02  1.041390E-02  1.040981E-02  1.041000E-02  1.040992E-02  1.040857E-02  1.040581E-02
 1.309189E-02  1.140476E-02  1.062940E-02  1.044130E-02  1.041197E-02  1.040938E-02  1.040971E-02  1.040958E-02  1.040812E-02  1.040530E-02
 1.225370E-02  1.099141E-02  1.052516E-02  1.042396E-02  1.040982E-02  1.040909E-02  1.040954E-02  1.040928E-02  1.040766E-02  1.040475E-02
 1.143100E-02  1.067461E-02  1.045446E-02  1.041339E-02  1.040875E-02  1.040906E-02  1.040948E-02  1.040902E-02  1.040717E-02  1.040414E-02
 1.084557E-02  1.050138E-02  1.042144E-02  1.040916E-02  1.040854E-02  1.040920E-02  1.040948E-02  1.040873E-02  1.040659E-02  1.040343E-02
 1.054370E-02  1.043116E-02  1.041026E-02  1.040815E-02  1.040875E-02  1.040939E-02  1.040942E-02  1.040827E-02  1.040580E-02  1.040256E-02
 1.043465E-02  1.041090E-02  1.040784E-02  1.040828E-02  1.040905E-02  1.040948E-02  1.040907E-02  1.040741E-02  1.040464E-02  1.040145E-02