# vtk DataFile Version 2.0
PFLOTRAN output
ASCII
DATASET UNSTRUCTURED_GRID
POINTS         4242 float
 0.000000E+00  0.000000E+00  0.000000E+00
 2.000000E+02  0.000000E+00  0.000000E+00
 4.000000E+02  0.000000E+00  0.000000E+00
 6.000000E+02  0.000000E+00  0.000000E+00
 8.000000E+02  0.000000E+00  0.000000E+00
 1.000000E+03  0.000000E+00  0.000000E+00
 1.200000E+03  0.000000E+00  0.000000E+00
 1.400000E+03  0.000000E+00  0.000000E+00
 1.600000E+03  0.000000E+00  0.000000E+00
 1.800000E+03  0.000000E+00  0.000000E+00
 2.000000E+03  0.000000E+00  0.000000E+00
 2.200000E+03  0.000000E+00  0.000000E+00
 2.400000E+03  0.000000E+00  0.000000E+00
 2.600000E+03  0.000000E+00  0.000000E+00
 2.800000E+03  0.000000E+00  0.000000E+00
 3.000000E+03  0.000000E+00  0.000000E+00
 3.200000E+03  0.000000E+00  0.000000E+00
 3.400000E+03  0.000000E+00  0.000000E+00
 3.600000E+03  0.000000E+00  0.000000E+00
 3.800000E+03  0.000000E+00  0.000000E+00
 4.000000E+03  0.000000E+00  0.000000E+00
 4.200000E+03  0.000000E+00  0.000000E+00
 4.400000E+03  0.000000E+00  0.000000E+00
 4.600000E+03  0.000000E+00  0.000000E+00
 4.800000E+03  0.000000E+00  0.000000E+00
 5.000000E+03  0.000000E+00  0.000000E+00
 5.200000E+03  0.000000E+00  0.000000E+00
 5.400000E+03  0.000000E+00  0.000000E+00
 5.600000E+03  0.000000E+00  0.000000E+00
 5.800000E+03  0.000000E+00  0.000000E+00
 6.000000E+03  0.000000E+00  0.000000E+00
 6.200000E+03  0.000000E+00  0.000000E+00
 6.400000E+03  0.000000E+00  0.000000E+00
 6.600000E+03  0.000000E+00  0.000000E+00
 6.800000E+03  0.000000E+00  0.000000E+00
 7.000000E+03  0.000000E+00  0.000000E+00
 7.200000E+03  0.000000E+00  0.000000E+00
 7.400000E+03  0.000000E+00  0.000000E+00
 7.600000E+03  0.000000E+00  0.000000E+00
 7.800000E+03  0.000000E+00  0.000000E+00
 8.000000E+03  0.000000E+00  0.000000E+00
 8.200000E+03  0.000000E+00  0.000000E+00
 8.400000E+03  0.000000E+00  0.000000E+00
 8.600000E+03  0.000000E+00  0.000000E+00
 8.800000E+03  0.000000E+00  0.000000E+00
 9.000000E+03  0.000000E+00  0.000000E+00
 9.200000E+03  0.000000E+00  0.000000E+00
 9.400000E+03  0.000000E+00  0.000000E+00
 9.600000E+03  0.000000E+00  0.000000E+00
 9.800000E+03  0.000000E+00  0.000000E+00
 1.000000E+04  0.000000E+00  0.000000E+00
 1.020000E+04  0.000000E+00  0.000000E+00
 1.040000E+04  0.000000E+00  0.000000E+00
 1.060000E+04  0.000000E+00  0.000000E+00
 1.080000E+04  0.000000E+00  0.000000E+00
 1.100000E+04  0.000000E+00  0.000000E+00
 1.120000E+04  0.000000E+00  0.000000E+00
 1.140000E+04  0.000000E+00  0.000000E+00
 1.160000E+04  0.000000E+00  0.000000E+00
 1.180000E+04  0.000000E+00  0.000000E+00
 1.200000E+04  0.000000E+00  0.000000E+00
 1.220000E+04  0.000000E+00  0.000000E+00
 1.240000E+04  0.000000E+00  0.000000E+00
 1.260000E+04  0.000000E+00  0.000000E+00
 1.280000E+04  0.000000E+00  0.000000E+00
 1.300000E+04  0.000000E+00  0.000000E+00
 1.320000E+04  0.000000E+00  0.000000E+00
 1.340000E+04  0.000000E+00  0.000000E+00
 1.360000E+04  0.000000E+00  0.000000E+00
 1.380000E+04  0.000000E+00  0.000000E+00
 1.400000E+04  0.000000E+00  0.000000E+00
 1.420000E+04  0.000000E+00  0.000000E+00
 1.440000E+04  0.000000E+00  0.000000E+00
 1.460000E+04  0.000000E+00  0.000000E+00
 1.480000E+04  0.000000E+00  0.000000E+00
 1.500000E+04  0.000000E+00  0.000000E+00
 1.520000E+04  0.000000E+00  0.000000E+00
 1.540000E+04  0.000000E+00  0.000000E+00
 1.560000E+04  0.000000E+00  0.000000E+00
 1.580000E+04  0.000000E+00  0.000000E+00
 1.600000E+04  0.000000E+00  0.000000E+00
 1.620000E+04  0.000000E+00  0.000000E+00
 1.640000E+04  0.000000E+00  0.000000E+00
 1.660000E+04  0.000000E+00  0.000000E+00
 1.680000E+04  0.000000E+00  0.000000E+00
 1.700000E+04  0.000000E+00  0.000000E+00
 1.720000E+04  0.000000E+00  0.000000E+00
 1.740000E+04  0.000000E+00  0.000000E+00
 1.760000E+04  0.000000E+00  0.000000E+00
 1.780000E+04  0.000000E+00  0.000000E+00
 1.800000E+04  0.000000E+00  0.000000E+00
 1.820000E+04  0.000000E+00  0.000000E+00
 1.840000E+04  0.000000E+00  0.000000E+00
 1.860000E+04  0.000000E+00  0.000000E+00
 1.880000E+04  0.000000E+00  0.000000E+00
 1.900000E+04  0.000000E+00  0.000000E+00
 1.920000E+04  0.000000E+00  0.000000E+00
 1.940000E+04  0.000000E+00  0.000000E+00
 1.960000E+04  0.000000E+00  0.000000E+00
 1.980000E+04  0.000000E+00  0.000000E+00
 2.000000E+04  0.000000E+00  0.000000E+00
 0.000000E+00  1.000000E+00  0.000000E+00
 2.000000E+02  1.000000E+00  0.000000E+00
 4.000000E+02  1.000000E+00  0.000000E+00
 6.000000E+02  1.000000E+00  0.000000E+00
 8.000000E+02  1.000000E+00  0.000000E+00
 1.000000E+03  1.000000E+00  0.000000E+00
 1.200000E+03  1.000000E+00  0.000000E+00
 1.400000E+03  1.000000E+00  0.000000E+00
 1.600000E+03  1.000000E+00  0.000000E+00
 1.800000E+03  1.000000E+00  0.000000E+00
 2.000000E+03  1.000000E+00  0.000000E+00
 2.200000E+03  1.000000E+00  0.000000E+00
 2.400000E+03  1.000000E+00  0.000000E+00
 2.600000E+03  1.000000E+00  0.000000E+00
 2.800000E+03  1.000000E+00  0.000000E+00
 3.000000E+03  1.000000E+00  0.000000E+00
 3.200000E+03  1.000000E+00  0.000000E+00
 3.400000E+03  1.000000E+00  0.000000E+00
 3.600000E+03  1.000000E+00  0.000000E+00
 3.800000E+03  1.000000E+00  0.000000E+00
 4.000000E+03  1.000000E+00  0.000000E+00
 4.200000E+03  1.000000E+00  0.000000E+00
 4.400000E+03  1.000000E+00  0.000000E+00
 4.600000E+03  1.000000E+00  0.000000E+00
 4.800000E+03  1.000000E+00  0.000000E+00
 5.000000E+03  1.000000E+00  0.000000E+00
 5.200000E+03  1.000000E+00  0.000000E+00
 5.400000E+03  1.000000E+00  0.000000E+00
 5.600000E+03  1.000000E+00  0.000000E+00
 5.800000E+03  1.000000E+00  0.000000E+00
 6.000000E+03  1.000000E+00  0.000000E+00
 6.200000E+03  1.000000E+00  0.000000E+00
 6.400000E+03  1.000000E+00  0.000000E+00
 6.600000E+03  1.000000E+00  0.000000E+00
 6.800000E+03  1.000000E+00  0.000000E+00
 7.000000E+03  1.000000E+00  0.000000E+00
 7.200000E+03  1.000000E+00  0.000000E+00
 7.400000E+03  1.000000E+00  0.000000E+00
 7.600000E+03  1.000000E+00  0.000000E+00
 7.800000E+03  1.000000E+00  0.000000E+00
 8.000000E+03  1.000000E+00  0.000000E+00
 8.200000E+03  1.000000E+00  0.000000E+00
 8.400000E+03  1.000000E+00  0.000000E+00
 8.600000E+03  1.000000E+00  0.000000E+00
 8.800000E+03  1.000000E+00  0.000000E+00
 9.000000E+03  1.000000E+00  0.000000E+00
 9.200000E+03  1.000000E+00  0.000000E+00
 9.400000E+03  1.000000E+00  0.000000E+00
 9.600000E+03  1.000000E+00  0.000000E+00
 9.800000E+03  1.000000E+00  0.000000E+00
 1.000000E+04  1.000000E+00  0.000000E+00
 1.020000E+04  1.000000E+00  0.000000E+00
 1.040000E+04  1.000000E+00  0.000000E+00
 1.060000E+04  1.000000E+00  0.000000E+00
 1.080000E+04  1.000000E+00  0.000000E+00
 1.100000E+04  1.000000E+00  0.000000E+00
 1.120000E+04  1.000000E+00  0.000000E+00
 1.140000E+04  1.000000E+00  0.000000E+00
 1.160000E+04  1.000000E+00  0.000000E+00
 1.180000E+04  1.000000E+00  0.000000E+00
 1.200000E+04  1.000000E+00  0.000000E+00
 1.220000E+04  1.000000E+00  0.000000E+00
 1.240000E+04  1.000000E+00  0.000000E+00
 1.260000E+04  1.000000E+00  0.000000E+00
 1.280000E+04  1.000000E+00  0.000000E+00
 1.300000E+04  1.000000E+00  0.000000E+00
 1.320000E+04  1.000000E+00  0.000000E+00
 1.340000E+04  1.000000E+00  0.000000E+00
 1.360000E+04  1.000000E+00  0.000000E+00
 1.380000E+04  1.000000E+00  0.000000E+00
 1.400000E+04  1.000000E+00  0.000000E+00
 1.420000E+04  1.000000E+00  0.000000E+00
 1.440000E+04  1.000000E+00  0.000000E+00
 1.460000E+04  1.000000E+00  0.000000E+00
 1.480000E+04  1.000000E+00  0.000000E+00
 1.500000E+04  1.000000E+00  0.000000E+00
 1.520000E+04  1.000000E+00  0.000000E+00
 1.540000E+04  1.000000E+00  0.000000E+00
 1.560000E+04  1.000000E+00  0.000000E+00
 1.580000E+04  1.000000E+00  0.000000E+00
 1.600000E+04  1.000000E+00  0.000000E+00
 1.620000E+04  1.000000E+00  0.000000E+00
 1.640000E+04  1.000000E+00  0.000000E+00
 1.660000E+04  1.000000E+00  0.000000E+00
 1.680000E+04  1.000000E+00  0.000000E+00
 1.700000E+04  1.000000E+00  0.000000E+00
 1.720000E+04  1.000000E+00  0.000000E+00
 1.740000E+04  1.000000E+00  0.000000E+00
 1.760000E+04  1.000000E+00  0.000000E+00
 1.780000E+04  1.000000E+00  0.000000E+00
 1.800000E+04  1.000000E+00  0.000000E+00
 1.820000E+04  1.000000E+00  0.000000E+00
 1.840000E+04  1.000000E+00  0.000000E+00
 1.860000E+04  1.000000E+00  0.000000E+00
 1.880000E+04  1.000000E+00  0.000000E+00
 1.900000E+04  1.000000E+00  0.000000E+00
 1.920000E+04  1.000000E+00  0.000000E+00
 1.940000E+04  1.000000E+00  0.000000E+00
 1.960000E+04  1.000000E+00  0.000000E+00
 1.980000E+04  1.000000E+00  0.000000E+00
 2.000000E+04  1.000000E+00  0.000000E+00
 0.000000E+00  0.000000E+00  1.500000E+01
 2.000000E+02  0.000000E+00  1.500000E+01
 4.000000E+02  0.000000E+00  1.500000E+01
 6.000000E+02  0.000000E+00  1.500000E+01
 8.000000E+02  0.000000E+00  1.500000E+01
 1.000000E+03  0.000000E+00  1.500000E+01
 1.200000E+03  0.000000E+00  1.500000E+01
 1.400000E+03  0.000000E+00  1.500000E+01
 1.600000E+03  0.000000E+00  1.500000E+01
 1.800000E+03  0.000000E+00  1.500000E+01
 2.000000E+03  0.000000E+00  1.500000E+01
 2.200000E+03  0.000000E+00  1.500000E+01
 2.400000E+03  0.000000E+00  1.500000E+01
 2.600000E+03  0.000000E+00  1.500000E+01
 2.800000E+03  0.000000E+00  1.500000E+01
 3.000000E+03  0.000000E+00  1.500000E+01
 3.200000E+03  0.000000E+00  1.500000E+01
 3.400000E+03  0.000000E+00  1.500000E+01
 3.600000E+03  0.000000E+00  1.500000E+01
 3.800000E+03  0.000000E+00  1.500000E+01
 4.000000E+03  0.000000E+00  1.500000E+01
 4.200000E+03  0.000000E+00  1.500000E+01
 4.400000E+03  0.000000E+00  1.500000E+01
 4.600000E+03  0.000000E+00  1.500000E+01
 4.800000E+03  0.000000E+00  1.500000E+01
 5.000000E+03  0.000000E+00  1.500000E+01
 5.200000E+03  0.000000E+00  1.500000E+01
 5.400000E+03  0.000000E+00  1.500000E+01
 5.600000E+03  0.000000E+00  1.500000E+01
 5.800000E+03  0.000000E+00  1.500000E+01
 6.000000E+03  0.000000E+00  1.500000E+01
 6.200000E+03  0.000000E+00  1.500000E+01
 6.400000E+03  0.000000E+00  1.500000E+01
[...]
CELL_DATA     2000
SCALARS Vlx                  float 1
LOOKUP_TABLE default
 3.760580E+01  3.669725E+01  3.212738E+01  2.600698E+01  2.108205E+01  1.748292E+01  1.485723E+01  1.289387E+01  1.138184E+01  1.018515E+01
 9.215556E+00  8.414350E+00  7.741268E+00  7.167880E+00  6.673573E+00  6.243044E+00  5.864699E+00  5.529592E+00  5.230712E+00  4.962486E+00
 4.720428E+00  4.500886E+00  4.300858E+00  4.117854E+00  3.949789E+00  3.794905E+00  3.651711E+00  3.518930E+00  3.395467E+00  3.280374E+00
 3.172828E+00  3.072111E+00  2.977591E+00  2.888715E+00  2.804990E+00  2.725982E+00  2.651304E+00  2.580608E+00  2.513585E+00  2.449955E+00
 2.389468E+00  2.331895E+00  2.277032E+00  2.224691E+00  2.174703E+00  2.126912E+00  2.081176E+00  2.037366E+00  1.995363E+00  1.955057E+00
 1.916347E+00  1.879141E+00  1.843352E+00  1.808900E+00  1.775713E+00  1.743722E+00  1.712864E+00  1.683079E+00  1.654312E+00  1.626512E+00
 1.599631E+00  1.573624E+00  1.548450E+00  1.524068E+00  1.500443E+00  1.477538E+00  1.455323E+00  1.433766E+00  1.412838E+00  1.392513E+00
 1.372764E+00  1.353568E+00  1.334901E+00  1.316743E+00  1.299071E+00  1.281868E+00  1.265115E+00  1.248794E+00  1.232889E+00  1.217384E+00
 1.202264E+00  1.187515E+00  1.173124E+00  1.159077E+00  1.145363E+00  1.131970E+00  1.118887E+00  1.106102E+00  1.093607E+00  1.081391E+00
 1.069445E+00  1.057760E+00  1.046328E+00  1.035142E+00  1.024193E+00  1.013476E+00  1.002986E+00  9.927198E-01  9.826821E-01  9.729098E-01
 4.052696E+01  3.830911E+01  3.266762E+01  2.615938E+01  2.112395E+01  1.749506E+01  1.486134E+01  1.289572E+01  1.138300E+01  1.018606E+01
 9.216345E+00  8.415060E+00  7.741918E+00  7.168481E+00  6.674132E+00  6.243567E+00  5.865190E+00  5.530055E+00  5.231150E+00  4.962901E+00
 4.720823E+00  4.501263E+00  4.301218E+00  4.118199E+00  3.950120E+00  3.795223E+00  3.652016E+00  3.519224E+00  3.395751E+00  3.280649E+00
 3.173094E+00  3.072368E+00  2.977840E+00  2.888956E+00  2.805225E+00  2.726210E+00  2.651526E+00  2.580824E+00  2.513795E+00  2.450160E+00
 2.389668E+00  2.332090E+00  2.277223E+00  2.224877E+00  2.174885E+00  2.127090E+00  2.081350E+00  2.037537E+00  1.995530E+00  1.955221E+00
 1.916508E+00  1.879298E+00  1.843506E+00  1.809052E+00  1.775862E+00  1.743868E+00  1.713007E+00  1.683219E+00  1.654450E+00  1.626648E+00
 1.599765E+00  1.573756E+00  1.548579E+00  1.524196E+00  1.500568E+00  1.477662E+00  1.455445E+00  1.433886E+00  1.412957E+00  1.392630E+00
 1.372879E+00  1.353681E+00  1.335013E+00  1.316853E+00  1.299180E+00  1.281975E+00  1.265221E+00  1.248898E+00  1.232992E+00  1.217485E+00
 1.202364E+00  1.187614E+00  1.173222E+00  1.159174E+00  1.145459E+00  1.132065E+00  1.118980E+00  1.106195E+00  1.093698E+00  1.081481E+00
 1.069534E+00  1.057849E+00  1.046416E+00  1.035228E+00  1.024279E+00  1.013561E+00  1.003069E+00  9.928017E-01  9.827607E-01  9.729623E-01
 4.673604E+01  4.164555E+01  3.373073E+01  2.645139E+01  2.120248E+01  1.751687E+01  1.486802E+01  1.289827E+01  1.138436E+01  1.018702E+01
 9.217149E+00  8.415774E+00  7.742569E+00  7.169082E+00  6.674691E+00  6.244090E+00  5.865681E+00  5.530518E+00  5.231588E+00  4.963317E+00
 4.721218E+00  4.501639E+00  4.301578E+00  4.118544E+00  3.950450E+00  3.795540E+00  3.652322E+00  3.519519E+00  3.396035E+00  3.280923E+00
 3.173359E+00  3.072625E+00  2.978090E+00  2.889198E+00  2.805459E+00  2.726438E+00  2.651747E+00  2.581040E+00  2.514005E+00  2.450365E+00
 2.389867E+00  2.332285E+00  2.277413E+00  2.225063E+00  2.175067E+00  2.127268E+00  2.081524E+00  2.037707E+00  1.995697E+00  1.955384E+00
 1.916668E+00  1.879455E+00  1.843660E+00  1.809203E+00  1.776010E+00  1.744014E+00  1.713150E+00  1.683360E+00  1.654588E+00  1.626784E+00
 1.599898E+00  1.573887E+00  1.548709E+00  1.524323E+00  1.500694E+00  1.477786E+00  1.455567E+00  1.434006E+00  1.413075E+00  1.392746E+00
 1.372994E+00  1.353795E+00  1.335125E+00  1.316963E+00  1.299289E+00  1.282083E+00  1.265326E+00  1.249003E+00  1.233095E+00  1.217587E+00
 1.202465E+00  1.187714E+00  1.173320E+00  1.159271E+00  1.145555E+00  1.132160E+00  1.119074E+00  1.106287E+00  1.093790E+00  1.081572E+00
 1.069624E+00  1.057937E+00  1.046503E+00  1.035315E+00  1.024364E+00  1.013645E+00  1.003152E+00  9.928826E-01  9.828370E-01  9.730192E-01
 5.702330E+01  4.694421E+01  3.527994E+01  2.686128E+01  2.131077E+01  1.754643E+01  1.487676E+01  1.290137E+01  1.138586E+01  1.018803E+01
 9.217963E+00  8.416491E+00  7.743221E+00  7.169684E+00  6.675250E+00  6.244613E+00  5.866172E+00  5.530981E+00  5.232026E+00  4.963732E+00
 4.721613E+00  4.502016E+00  4.301938E+00  4.118888E+00  3.950781E+00  3.795858E+00  3.652627E+00  3.519813E+00  3.396319E+00  3.281197E+00
 3.173625E+00  3.072882E+00  2.978339E+00  2.889439E+00  2.805694E+00  2.726666E+00  2.651969E+00  2.581256E+00  2.514216E+00  2.450570E+00
 2.390067E+00  2.332480E+00  2.277603E+00  2.225249E+00  2.175249E+00  2.127445E+00  2.081698E+00  2.037878E+00  1.995864E+00  1.955548E+00
 1.916828E+00  1.879612E+00  1.843814E+00  1.809354E+00  1.776159E+00  1.744160E+00  1.713294E+00  1.683501E+00  1.654727E+00  1.626920E+00
 1.600032E+00  1.574019E+00  1.548838E+00  1.524450E+00  1.500819E+00  1.477909E+00  1.455688E+00  1.434126E+00  1.413193E+00  1.392862E+00
 1.373109E+00  1.353908E+00  1.335236E+00  1.317073E+00  1.299397E+00  1.282190E+00  1.265432E+00  1.249107E+00  1.233198E+00  1.217689E+00
 1.202565E+00  1.187813E+00  1.173418E+00  1.159368E+00  1.145651E+00  1.132254E+00  1.119167E+00  1.106380E+00  1.093881E+00  1.081662E+00
 1.069713E+00  1.058025E+00  1.046591E+00  1.035401E+00  1.024449E+00  1.013729E+00  1.003235E+00  9.929626E-01  9.829119E-01  9.730792E-01
 7.272441E+01  5.458572E+01  3.724323E+01  2.735587E+01  2.143902E+01  1.758104E+01  1.488683E+01  1.290483E+01  1.138747E+01  1.018906E+01
 9.218785E+00  8.417210E+00  7.743873E+00  7.170285E+00  6.675809E+00  6.245135E+00  5.866663E+00  5.531444E+00  5.232463E+00  4.964147E+00
 4.722008E+00  4.502392E+00  4.302298E+00  4.119233E+00  3.951111E+00  3.796175E+00  3.652932E+00  3.520107E+00  3.396603E+00  3.281472E+00
 3.173890E+00  3.073139E+00  2.978587E+00  2.889681E+00  2.805928E+00  2.726894E+00  2.652191E+00  2.581471E+00  2.514426E+00  2.450775E+00
 2.390267E+00  2.332675E+00  2.277794E+00  2.225435E+00  2.175430E+00  2.127623E+00  2.081872E+00  2.038048E+00  1.996031E+00  1.955711E+00
 1.916988E+00  1.879769E+00  1.843968E+00  1.809505E+00  1.776307E+00  1.744306E+00  1.713437E+00  1.683642E+00  1.654865E+00  1.627056E+00
 1.600166E+00  1.574150E+00  1.548968E+00  1.524578E+00  1.500944E+00  1.478033E+00  1.455810E+00  1.434246E+00  1.413311E+00  1.392979E+00
 1.373223E+00  1.354021E+00  1.335348E+00  1.317183E+00  1.299506E+00  1.282297E+00  1.265538E+00  1.249211E+00  1.233301E+00  1.217791E+00
 1.202666E+00  1.187912E+00  1.173516E+00  1.159465E+00  1.145746E+00  1.132349E+00  1.119261E+00  1.106472E+00  1.093973E+00  1.081752E+00
 1.069802E+00  1.058114E+00  1.046678E+00  1.035487E+00  1.024534E+00  1.013813E+00  1.003317E+00  9.930418E-01  9.829858E-01  9.731416E-01
 9.592606E+01  6.512371E+01  3.948964E+01  2.789078E+01  2.157521E+01  1.761751E+01  1.489737E+01  1.290842E+01  1.138910E+01  1.019010E+01
 9.219608E+00  8.417929E+00  7.744526E+00  7.170886E+00  6.676368E+00  6.245658E+00  5.867154E+00  5.531906E+00  5.232901E+00  4.964562E+00
 4.722402E+00  4.502769E+00  4.302657E+00  4.119577E+00  3.951441E+00  3.796492E+00  3.653238E+00  3.520401E+00  3.396887E+00  3.281746E+00
 3.174155E+00  3.073395E+00  2.978836E+00  2.889922E+00  2.806163E+00  2.727122E+00  2.652412E+00  2.581687E+00  2.514636E+00  2.450979E+00
 2.390467E+00  2.332870E+00  2.277984E+00  2.225621E+00  2.175612E+00  2.127801E+00  2.082046E+00  2.038218E+00  1.996197E+00  1.955874E+00
 1.917148E+00  1.879926E+00  1.844122E+00  1.809656E+00  1.776456E+00  1.744451E+00  1.713580E+00  1.683782E+00  1.655003E+00  1.627192E+00
 1.600299E+00  1.574282E+00  1.549097E+00  1.524705E+00  1.501070E+00  1.478156E+00  1.455931E+00  1.434365E+00  1.413429E+00  1.393095E+00
 1.373338E+00  1.354134E+00  1.335459E+00  1.317293E+00  1.299614E+00  1.282404E+00  1.265644E+00  1.249316E+00  1.233404E+00  1.217892E+00
 1.202766E+00  1.188011E+00  1.173614E+00  1.159562E+00  1.145842E+00  1.132443E+00  1.119354E+00  1.106565E+00  1.094064E+00  1.081843E+00
 1.069892E+00  1.058202E+00  1.046765E+00  1.035573E+00  1.024619E+00  1.013896E+00  1.003398E+00  9.931204E-01  9.830592E-01  9.732059E-01
 1.296379E+02  7.927604E+01  4.179079E+01  2.841226E+01  2.170606E+01  1.765241E+01  1.490747E+01  1.291188E+01  1.139070E+01  1.019113E+01
 9.220430E+00  8.418647E+00  7.745178E+00  7.171487E+00  6.676927E+00  6.246180E+00  5.867644E+00  5.532369E+00  5.233338E+00  4.964977E+00
 4.722797E+00  4.503145E+00  4.303017E+00  4.119921E+00  3.951771E+00  3.796809E+00  3.653543E+00  3.520695E+00  3.397170E+00  3.282020E+00
 3.174420E+00  3.073652E+00  2.979085E+00  2.890164E+00  2.806397E+00  2.727350E+00  2.652634E+00  2.581903E+00  2.514846E+00  2.451184E+00
 2.390666E+00  2.333065E+00  2.278174E+00  2.225807E+00  2.175794E+00  2.127979E+00  2.082220E+00  2.038388E+00  1.996364E+00  1.956038E+00
 1.917308E+00  1.880083E+00  1.844276E+00  1.809808E+00  1.776604E+00  1.744597E+00  1.713723E+00  1.683923E+00  1.655141E+00  1.627327E+00
 1.600433E+00  1.574413E+00  1.549226E+00  1.524832E+00  1.501195E+00  1.478279E+00  1.456053E+00  1.434485E+00  1.413547E+00  1.393211E+00
 1.373453E+00  1.354247E+00  1.335571E+00  1.317403E+00  1.299723E+00  1.282511E+00  1.265749E+00  1.249420E+00  1.233507E+00  1.217994E+00
 1.202867E+00  1.188110E+00  1.173712E+00  1.159659E+00  1.145938E+00  1.132538E+00  1.119448E+00  1.106657E+00  1.094155E+00  1.081933E+00
 1.069981E+00  1.058290E+00  1.046852E+00  1.035659E+00  1.024704E+00  1.013980E+00  1.003479E+00  9.931986E-01  9.831323E-01  9.732714E-01
 1.517208E+02  8.912808E+01  4.376296E+01  2.886260E+01  2.181849E+01  1.768241E+01  1.491627E+01  1.291499E+01  1.139221E+01  1.019214E+01
 9.221243E+00  8.419364E+00  7.745829E+00  7.172088E+00  6.677485E+00  6.246702E+00  5.868134E+00  5.532831E+00  5.233775E+00  4.965392E+00
 4.723191E+00  4.503521E+00  4.303376E+00  4.120265E+00  3.952101E+00  3.797126E+00  3.653848E+00  3.520989E+00  3.397454E+00  3.282294E+00
 3.174685E+00  3.073909E+00  2.979334E+00  2.890405E+00  2.806631E+00  2.727577E+00  2.652855E+00  2.582118E+00  2.515055E+00  2.451389E+00
 2.390866E+00  2.333259E+00  2.278364E+00  2.225993E+00  2.175975E+00  2.128156E+00  2.082394E+00  2.038558E+00  1.996531E+00  1.956201E+00
 1.917468E+00  1.880240E+00  1.844430E+00  1.809959E+00  1.776752E+00  1.744742E+00  1.713866E+00  1.684063E+00  1.655279E+00  1.627463E+00
 1.600567E+00  1.574545E+00  1.549355E+00  1.524960E+00  1.501320E+00  1.478403E+00  1.456174E+00  1.434605E+00  1.413665E+00  1.393328E+00
 1.373567E+00  1.354360E+00  1.335682E+00  1.317513E+00  1.299831E+00  1.282618E+00  1.265855E+00  1.249524E+00  1.233610E+00  1.218096E+00
 1.202967E+00  1.188210E+00  1.173810E+00  1.159755E+00  1.146033E+00  1.132632E+00  1.119541E+00  1.106749E+00  1.094247E+00  1.082023E+00
 1.070070E+00  1.058378E+00  1.046939E+00  1.035745E+00  1.024789E+00  1.014063E+00  1.003560E+00  9.932764E-01  9.832051E-01  9.733379E-01
 1.649766E+02  9.532472E+01  4.517968E+01  2.919270E+01  2.190110E+01  1.770468E+01  1.492301E+01  1.291755E+01  1.139356E+01  1.019310E+01
 9.222045E+00  8.420076E+00  7.746479E+00  7.172688E+00  6.678043E+00  6.247224E+00  5.868624E+00  5.533293E+00  5.234212E+00  4.965806E+00
 4.723586E+00  4.503897E+00  4.303735E+00  4.120609E+00  3.952431E+00  3.797443E+00  3.654153E+00  3.521283E+00  3.397737E+00  3.282568E+00
 3.174950E+00  3.074165E+00  2.979582E+00  2.890646E+00  2.806865E+00  2.727805E+00  2.653076E+00  2.582333E+00  2.515265E+00  2.451593E+00
 2.391065E+00  2.333454E+00  2.278554E+00  2.226178E+00  2.176157E+00  2.128334E+00  2.082568E+00  2.038728E+00  1.996697E+00  1.956364E+00
 1.917628E+00  1.880397E+00  1.844584E+00  1.810109E+00  1.776900E+00  1.744888E+00  1.714009E+00  1.684204E+00  1.655417E+00  1.627599E+00
 1.600700E+00  1.574676E+00  1.549485E+00  1.525087E+00  1.501445E+00  1.478526E+00  1.456296E+00  1.434724E+00  1.413783E+00  1.393444E+00
 1.373682E+00  1.354473E+00  1.335794E+00  1.317623E+00  1.299940E+00  1.282725E+00  1.265960E+00  1.249628E+00  1.233713E+00  1.218197E+00
 1.203067E+00  1.188309E+00  1.173908E+00  1.159852E+00  1.146129E+00  1.132727E+00  1.119635E+00  1.106842E+00  1.094338E+00  1.082113E+00
 1.070159E+00  1.058466E+00  1.047026E+00  1.035831E+00  1.024874E+00  1.014146E+00  1.003641E+00  9.933540E-01  9.832778E-01  9.734051E-01
 1.711945E+02  9.831780E+01  4.591728E+01  2.936796E+01  2.194557E+01  1.771712E+01  1.492715E+01  1.291941E+01  1.139473E+01  1.019401E+01
 9.222833E+00  8.420785E+00  7.747127E+00  7.173287E+00  6.678601E+00  6.247746E+00  5.869114E+00  5.533755E+00  5.234649E+00  4.966221E+00
 4.723980E+00  4.504272E+00  4.304094E+00  4.120952E+00  3.952761E+00  3.797760E+00  3.654457E+00  3.521577E+00  3.398021E+00  3.282841E+00
 3.175215E+00  3.074421E+00  2.979831E+00  2.890887E+00  2.807099E+00  2.728032E+00  2.653298E+00  2.582549E+00  2.515475E+00  2.451797E+00
 2.391264E+00  2.333649E+00  2.278744E+00  2.226364E+00  2.176338E+00  2.128511E+00  2.082741E+00  2.038898E+00  1.996863E+00  1.956527E+00
 1.917788E+00  1.880554E+00  1.844737E+00  1.810260E+00  1.777048E+00  1.745033E+00  1.714152E+00  1.684344E+00  1.655555E+00  1.627735E+00
 1.600833E+00  1.574807E+00  1.549614E+00  1.525214E+00  1.501571E+00  1.478649E+00  1.456417E+00  1.434844E+00  1.413901E+00  1.393560E+00
 1.373796E+00  1.354586E+00  1.335905E+00  1.317732E+00  1.300048E+00  1.282832E+00  1.266066E+00  1.249733E+00  1.233815E+00  1.218299E+00
 1.203168E+00  1.188408E+00  1.174006E+00  1.159949E+00  1.146224E+00  1.132821E+00  1.119728E+00  1.106934E+00  1.094429E+00  1.082204E+00
 1.070248E+00  1.058554E+00  1.047113E+00  1.035917E+00  1.024958E+00  1.014229E+00  1.003722E+00  9.934314E-01  9.833505E-01  9.734725E-01
 1.711984E+02  9.832167E+01  4.592059E+01  2.937045E+01  2.194745E+01  1.771863E+01  1.492841E+01  1.292049E+01  1.139569E+01  1.019487E+01
 9.223605E+00  8.421489E+00  7.747775E+00  7.173886E+00  6.679159E+00  6.248267E+00  5.869604E+00  5.534216E+00  5.235086E+00  4.966635E+00
 4.724374E+00  4.504648E+00  4.304453E+00  4.121296E+00  3.953090E+00  3.798077E+00  3.654762E+00  3.521870E+00  3.398304E+00  3.283115E+00
 3.175479E+00  3.074678E+00  2.980079E+00  2.891128E+00  2.807333E+00  2.728260E+00  2.653519E+00  2.582764E+00  2.515685E+00  2.452002E+00
 2.391464E+00  2.333843E+00  2.278934E+00  2.226550E+00  2.176519E+00  2.128688E+00  2.082915E+00  2.039068E+00  1.997030E+00  1.956690E+00
 1.917948E+00  1.880710E+00  1.844891E+00  1.810411E+00  1.777197E+00  1.745179E+00  1.714294E+00  1.684484E+00  1.655693E+00  1.627870E+00
 1.600967E+00  1.574938E+00  1.549743E+00  1.525341E+00  1.501696E+00  1.478772E+00  1.456539E+00  1.434963E+00  1.414018E+00  1.393676E+00
 1.373911E+00  1.354698E+00  1.336016E+00  1.317842E+00  1.300156E+00  1.282939E+00  1.266171E+00  1.249837E+00  1.233918E+00  1.218400E+00
 1.203268E+00  1.188507E+00  1.174104E+00  1.160045E+00  1.146320E+00  1.132916E+00  1.119821E+00  1.107026E+00  1.094520E+00  1.082294E+00
 1.070337E+00  1.058643E+00  1.047200E+00  1.036003E+00  1.025043E+00  1.014312E+00  1.003803E+00  9.935088E-01  9.834231E-01  9.735401E-01
 1.649962E+02  9.534073E+01  4.519093E+01  2.920038E+01  2.190677E+01  1.770920E+01  1.492679E+01  1.292081E+01  1.139643E+01  1.019566E+01
 9.224360E+00  8.422188E+00  7.748420E+00  7.174485E+00  6.679716E+00  6.248788E+00  5.870094E+00  5.534678E+00  5.235522E+00  4.967049E+00
 4.724767E+00  4.505023E+00  4.304812E+00  4.121639E+00  3.953420E+00  3.798393E+00  3.655067E+00  3.522164E+00  3.398587E+00  3.283389E+00
 3.175744E+00  3.074934E+00  2.980327E+00  2.891369E+00  2.807567E+00  2.728487E+00  2.653740E+00  2.582979E+00  2.515894E+00  2.452206E+00
 2.391663E+00  2.334037E+00  2.279124E+00  2.226735E+00  2.176701E+00  2.128866E+00  2.083088E+00  2.039238E+00  1.997196E+00  1.956853E+00
 1.918108E+00  1.880867E+00  1.845045E+00  1.810562E+00  1.777345E+00  1.745324E+00  1.714437E+00  1.684625E+00  1.655831E+00  1.628006E+00
 1.601100E+00  1.575070E+00  1.549872E+00  1.525468E+00  1.501821E+00  1.478896E+00  1.456660E+00  1.435083E+00  1.414136E+00  1.393792E+00
 1.374025E+00  1.354811E+00  1.336127E+00  1.317952E+00  1.300264E+00  1.283045E+00  1.266277E+00  1.249941E+00  1.234021E+00  1.218502E+00
 1.203368E+00  1.188606E+00  1.174201E+00  1.160142E+00  1.146415E+00  1.133010E+00  1.119914E+00  1.107118E+00  1.094611E+00  1.082384E+00
 1.070426E+00  1.058731E+00  1.047287E+00  1.036089E+00  1.025127E+00  1.014395E+00  1.003883E+00  9.935861E-01  9.834957E-01  9.736075E-01
 1.517536E+02  8.915485E+01  4.378163E+01  2.887530E+01  2.182789E+01  1.768993E+01  1.492256E+01  1.292042E+01  1.139699E+01  1.019641E+01
 9.225101E+00  8.422883E+00  7.749065E+00  7.175083E+00  6.680273E+00  6.249309E+00  5.870583E+00  5.535139E+00  5.235958E+00  4.967463E+00
 4.725161E+00  4.505399E+00  4.305171E+00  4.121983E+00  3.953749E+00  3.798709E+00  3.655371E+00  3.522457E+00  3.398870E+00  3.283662E+00
 3.176008E+00  3.075190E+00  2.980575E+00  2.891610E+00  2.807801E+00  2.728714E+00  2.653961E+00  2.583194E+00  2.516104E+00  2.452410E+00
 2.391862E+00  2.334232E+00  2.279314E+00  2.226920E+00  2.176882E+00  2.129043E+00  2.083262E+00  2.039408E+00  1.997362E+00  1.957016E+00
 1.918267E+00  1.881023E+00  1.845198E+00  1.810713E+00  1.777492E+00  1.745469E+00  1.714580E+00  1.684765E+00  1.655969E+00  1.628141E+00
 1.601233E+00  1.575201E+00  1.550001E+00  1.525595E+00  1.501946E+00  1.479019E+00  1.456781E+00  1.435202E+00  1.414254E+00  1.393908E+00
 1.374140E+00  1.354924E+00  1.336239E+00  1.318062E+00  1.300373E+00  1.283152E+00  1.266382E+00  1.250045E+00  1.234124E+00  1.218603E+00
 1.203468E+00  1.188705E+00  1.174299E+00  1.160238E+00  1.146511E+00  1.133104E+00  1.120008E+00  1.107210E+00  1.094702E+00  1.082474E+00
 1.070516E+00  1.058819E+00  1.047374E+00  1.036175E+00  1.025212E+00  1.014477E+00  1.003964E+00  9.936636E-01  9.835683E-01  9.736745E-01
 1.296798E+02  7.931134E+01  4.181611E+01  2.842972E+01  2.171912E+01  1.766290E+01  1.491628E+01  1.291948E+01  1.139739E+01  1.019711E+01
 9.225831E+00  8.423575E+00  7.749708E+00  7.175680E+00  6.680829E+00  6.249830E+00  5.871072E+00  5.535600E+00  5.236395E+00  4.967876E+00
 4.725555E+00  4.505774E+00  4.305529E+00  4.122326E+00  3.954078E+00  3.799026E+00  3.655675E+00  3.522750E+00  3.399153E+00  3.283935E+00
 3.176273E+00  3.075446E+00  2.980823E+00  2.891850E+00  2.808035E+00  2.728941E+00  2.654182E+00  2.583409E+00  2.516313E+00  2.452614E+00
 2.392061E+00  2.334426E+00  2.279503E+00  2.227106E+00  2.177063E+00  2.129220E+00  2.083435E+00  2.039578E+00  1.997529E+00  1.957179E+00
 1.918427E+00  1.881180E+00  1.845352E+00  1.810863E+00  1.777640E+00  1.745615E+00  1.714723E+00  1.684905E+00  1.656107E+00  1.628277E+00
 1.601367E+00  1.575332E+00  1.550130E+00  1.525722E+00  1.502071E+00  1.479142E+00  1.456902E+00  1.435322E+00  1.414372E+00  1.394024E+00
 1.374254E+00  1.355037E+00  1.336350E+00  1.318171E+00  1.300481E+00  1.283259E+00  1.266487E+00  1.250149E+00  1.234226E+00  1.218704E+00
 1.203568E+00  1.188803E+00  1.174397E+00  1.160335E+00  1.146606E+00  1.133198E+00  1.120101E+00  1.107302E+00  1.094793E+00  1.082564E+00
 1.070605E+00  1.058907E+00  1.047461E+00  1.036261E+00  1.025296E+00  1.014560E+00  1.004045E+00  9.937412E-01  9.836410E-01  9.737408E-01
 9.598633E+01  6.517031E+01  3.952115E+01  2.791271E+01  2.159185E+01  1.763096E+01  1.490868E+01  1.291819E+01  1.139770E+01  1.019778E+01
 9.226552E+00  8.424264E+00  7.750350E+00  7.176277E+00  6.681386E+00  6.250350E+00  5.871561E+00  5.536061E+00  5.236831E+00  4.968290E+00