# vtk DataFile Version 2.0
PFLOTRAN output
ASCII
DATASET UNSTRUCTURED_GRID
POINTS          462 float
 0.000000E+00  0.000000E+00  0.000000E+00
 1.000000E+01  0.000000E+00  0.000000E+00
 2.000000E+01  0.000000E+00  0.000000E+00
 3.000000E+01  0.000000E+00  0.000000E+00
 4.000000E+01  0.000000E+00  0.000000E+00
 5.000000E+01  0.000000E+00  0.000000E+00
 6.000000E+01  0.000000E+00  0.000000E+00
 7.000000E+01  0.000000E+00  0.000000E+00
 8.000000E+01  0.000000E+00  0.000000E+00
 9.000000E+01  0.000000E+00  0.000000E+00
 1.000000E+02  0.000000E+00  0.000000E+00
 0.000000E+00  1.000000E+00  0.000000E+00
 1.000000E+01  1.000000E+00  0.000000E+00
 2.000000E+01  1.000000E+00  0.000000E+00
 3.000000E+01  1.000000E+00  0.000000E+00
 4.000000E+01  1.000000E+00  0.000000E+00
 5.000000E+01  1.000000E+00  0.000000E+00
 6.000000E+01  1.000000E+00  0.000000E+00
 7.000000E+01  1.000000E+00  0.000000E+00
 8.000000E+01  1.000000E+00  0.000000E+00
 9.000000E+01  1.000000E+00  0.000000E+00
 1.000000E+02  1.000000E+00  0.000000E+00
 0.000000E+00  0.000000E+00  5.000000E+00
 1.000000E+01  0.000000E+00  5.000000E+00
 2.000000E+01  0.000000E+00  5.000000E+00
 3.000000E+01  0.000000E+00  5.000000E+00
 4.000000E+01  0.000000E+00  5.000000E+00
 5.000000E+01  0.000000E+00  5.000000E+00
 6.000000E+01  0.000000E+00  5.000000E+00
 7.000000E+01  0.000000E+00  5.000000E+00
 8.000000E+01  0.000000E+00  5.000000E+00
 9.000000E+01  0.000000E+00  5.000000E+00
 1.000000E+02  0.000000E+00  5.000000E+00
 0.000000E+00  1.000000E+00  5.000000E+00
 1.000000E+01  1.000000E+00  5.000000E+00
 2.000000E+01  1.000000E+00  5.000000E+00
 3.000000E+01  1.000000E+00  5.000000E+00
 4.000000E+01  1.000000E+00  5.000000E+00
 5.000000E+01  1.000000E+00  5.000000E+00
 6.000000E+01  1.000000E+00  5.000000E+00
 7.000000E+01  1.000000E+00  5.000000E+00
 8.000000E+01  1.000000E+00  5.000000E+00
 9.000000E+01  1.000000E+00  5.000000E+00
 1.000000E+02  1.000000E+00  5.000000E+00
 0.000000E+00  0.000000E+00  1.000000E+01
 1.000000E+01  0.000000E+00  1.000000E+01
 2.000000E+01  0.000000E+00  1.000000E+01
 3.000000E+01  0.000000E+00  1.000000E+01
 4.000000E+01  0.000000E+00  1.000000E+01
 5.000000E+01  0.000000E+00  1.000000E+01
 6.000000E+01  0.000000E+00  1.000000E+01
 7.000000E+01  0.000000E+00  1.000000E+01
 8.000000E+01  0.000000E+00  1.000000E+01
 9.000000E+01  0.000000E+00  1.000000E+01
 1.000000E+02  0.000000E+00  1.000000E+01
 0.000000E+00  1.000000E+00  1.000000E+01
 1.000000E+01  1.000000E+00  1.000000E+01
 2.000000E+01  1.000000E+00  1.000000E+01
 3.000000E+01  1.000000E+00  1.000000E+01
 4.000000E+01  1.000000E+00  1.000000E+01
 5.000000E+01  1.000000E+00  1.000000E+01
 6.000000E+01  1.000000E+00  1.000000E+01
 7.000000E+01  1.000000E+00  1.000000E+01
 8.000000E+01  1.000000E+00  1.000000E+01
 9.000000E+01  1.000000E+00  1.000000E+01
 1.000000E+02  1.000000E+00  1.000000E+01
 0.000000E+00  0.000000E+00  1.500000E+01
 1.000000E+01  0.000000E+00  1.500000E+01
 2.000000E+01  0.000000E+00  1.500000E+01
 3.000000E+01  0.000000E+00  1.500000E+01
 4.000000E+01  0.000000E+00  1.500000E+01
 5.000000E+01  0.000000E+00  1.500000E+01
 6.000000E+01  0.000000E+00  1.500000E+01
 7.000000E+01  0.000000E+00  1.500000E+01
 8.000000E+01  0.000000E+00  1.500000E+01
 9.000000E+01  0.000000E+00  1.500000E+01
 1.000000E+02  0.000000E+00  1.500000E+01
 0.000000E+00  1.000000E+00  1.500000E+01
 1.000000E+01  1.000000E+00  1.500000E+01
 2.000000E+01  1.000000E+00  1.500000E+01
 3.000000E+01  1.000000E+00  1.500000E+01
 4.000000E+01  1.000000E+00  1.500000E+01
 5.000000E+01  1.000000E+00  1.500000E+01
 6.000000E+01  1.000000E+00  1.500000E+01
 7.000000E+01  1.000000E+00  1.500000E+01
 8.000000E+01  1.000000E+00  1.500000E+01
 9.000000E+01  1.000000E+00  1.500000E+01
 1.000000E+02  1.000000E+00  1.500000E+01
 0.000000E+00  0.000000E+00  2.000000E+01
 1.000000E+01  0.000000E+00  2.000000E+01
 2.000000E+01  0.000000E+00  2.000000E+01
 3.000000E+01  0.000000E+00  2.000000E+01
 4.000000E+01  0.000000E+00  2.000000E+01
 5.000000E+01  0.000000E+00  2.000000E+01
 6.000000E+01  0.000000E+00  2.000000E+01
 7.000000E+01  0.000000E+00  2.000000E+01
 8.000000E+01  0.000000E+00  2.000000E+01
 9.000000E+01  0.000000E+00  2.000000E+01
 1.000000E+02  0.000000E+00  2.000000E+01
 0.000000E+00  1.000000E+00  2.000000E+01
 1.000000E+01  1.000000E+00  2.000000E+01
 2.000000E+01  1.000000E+00  2.000000E+01
 3.000000E+01  1.000000E+00  2.000000E+01
 4.000000E+01  1.000000E+00  2.000000E+01
 5.000000E+01  1.000000E+00  2.000000E+01
 6.000000E+01  1.000000E+00  2.000000E+01
 7.000000E+01  1.000000E+00  2.000000E+01
 8.000000E+01  1.000000E+00  2.000000E+01
 9.000000E+01  1.000000E+00  2.000000E+01
 1.000000E+02  1.000000E+00  2.000000E+01
 0.000000E+00  0.000000E+00  2.500000E+01
 1.000000E+01  0.000000E+00  2.500000E+01
 2.000000E+01  0.000000E+00  2.500000E+01
 3.000000E+01  0.000000E+00  2.500000E+01
 4.000000E+01  0.000000E+00  2.500000E+01
 5.000000E+01  0.000000E+00  2.500000E+01
 6.000000E+01  0.000000E+00  2.500000E+01
 7.000000E+01  0.000000E+00  2.500000E+01
 8.000000E+01  0.000000E+00  2.500000E+01
 9.000000E+01  0.000000E+00  2.500000E+01
 1.000000E+02  0.000000E+00  2.500000E+01
 0.000000E+00  1.000000E+00  2.500000E+01
 1.000000E+01  1.000000E+00  2.500000E+01
 2.000000E+01  1.000000E+00  2.500000E+01
 3.000000E+01  1.000000E+00  2.500000E+01
 4.000000E+01  1.000000E+00  2.500000E+01
 5.000000E+01  1.000000E+00  2.500000E+01
 6.000000E+01  1.000000E+00  2.500000E+01
 7.000000E+01  1.000000E+00  2.500000E+01
 8.000000E+01  1.000000E+00  2.500000E+01
 9.000000E+01  1.000000E+00  2.500000E+01
 1.000000E+02  1.000000E+00  2.500000E+01
 0.000000E+00  0.000000E+00  3.000000E+01
 1.000000E+01  0.000000E+00  3.000000E+01
 2.000000E+01  0.000000E+00  3.000000E+01
 3.000000E+01  0.000000E+00  3.000000E+01
 4.000000E+01  0.000000E+00  3.000000E+01
 5.000000E+01  0.000000E+00  3.000000E+01
 6.000000E+01  0.000000E+00  3.000000E+01
 7.000000E+01  0.000000E+00  3.000000E+01
 8.000000E+01  0.000000E+00  3.000000E+01
 9.000000E+01  0.000000E+00  3.000000E+01
 1.000000E+02  0.000000E+00  3.000000E+01
 0.000000E+00  1.000000E+00  3.000000E+01
 1.000000E+01  1.000000E+00  3.000000E+01
 2.000000E+01  1.000000E+00  3.000000E+01
 3.000000E+01  1.000000E+00  3.000000E+01
 4.000000E+01  1.000000E+00  3.000000E+01
 5.000000E+01  1.000000E+00  3.000000E+01
 6.000000E+01  1.000000E+00  3.000000E+01
 7.000000E+01  1.000000E+00  3.000000E+01
 8.000000E+01  1.000000E+00  3.000000E+01
 9.000000E+01  1.000000E+00  3.000000E+01
 1.000000E+02  1.000000E+00  3.000000E+01
 0.000000E+00  0.000000E+00  3.500000E+01
 1.000000E+01  0.000000E+00  3.500000E+01
 2.000000E+01  0.000000E+00  3.500000E+01
 3.000000E+01  0.000000E+00  3.500000E+01
 4.000000E+01  0.000000E+00  3.500000E+01
 5.000000E+01  0.000000E+00  3.500000E+01
 6.000000E+01  0.000000E+00  3.500000E+01
 7.000000E+01  0.000000E+00  3.500000E+01
 8.000000E+01  0.000000E+00  3.500000E+01
 9.000000E+01  0.000000E+00  3.500000E+01
 1.000000E+02  0.000000E+00  3.500000E+01
 0.000000E+00  1.000000E+00  3.500000E+01
 1.000000E+01  1.000000E+00  3.500000E+01
 2.000000E+01  1.000000E+00  3.500000E+01
 3.000000E+01  1.000000E+00  3.500000E+01
 4.000000E+01  1.000000E+00  3.500000E+01
 5.000000E+01  1.000000E+00  3.500000E+01
 6.000000E+01  1.000000E+00  3.500000E+01
 7.000000E+01  1.000000E+00  3.500000E+01
 8.000000E+01  1.000000E+00  3.500000E+01
 9.000000E+01  1.000000E+00  3.500000E+01
 1.000000E+02  1.000000E+00  3.500000E+01
 0.000000E+00  0.000000E+00  4.000000E+01
 1.000000E+01  0.000000E+00  4.000000E+01
 2.000000E+01  0.000000E+00  4.000000E+01
 3.000000E+01  0.000000E+00  4.000000E+01
 4.000000E+01  0.000000E+00  4.000000E+01
 5.000000E+01  0.000000E+00  4.000000E+01
 6.000000E+01  0.000000E+00  4.000000E+01
 7.000000E+01  0.000000E+00  4.000000E+01
 8.000000E+01  0.000000E+00  4.000000E+01
 9.000000E+01  0.000000E+00  4.000000E+01
 1.000000E+02  0.000000E+00  4.000000E+01
 0.000000E+00  1.000000E+00  4.000000E+01
 1.000000E+01  1.000000E+00  4.000000E+01
 2.000000E+01  1.000000E+00  4.000000E+01
 3.000000E+01  1.000000E+00  4.000000E+01
 4.000000E+01  1.000000E+00  4.000000E+01
 5.000000E+01  1.000000E+00  4.000000E+01
 6.000000E+01  1.000000E+00  4.000000E+01
 7.000000E+01  1.000000E+00  4.000000E+01
 8.000000E+01  1.000000E+00  4.000000E+01
 9.000000E+01  1.000000E+00  4.000000E+01
 1.000000E+02  1.000000E+00  4.000000E+01
 0.000000E+00  0.000000E+00  4.500000E+01
 1.000000E+01  0.000000E+00  4.500000E+01
 2.000000E+01  0.000000E+00  4.500000E+01
 3.000000E+01  0.000000E+00  4.500000E+01
 4.000000E+01  0.000000E+00  4.500000E+01
 5.000000E+01  0.000000E+00  4.500000E+01
 6.000000E+01  0.000000E+00  4.500000E+01
 7.000000E+01  0.000000E+00  4.500000E+01
 8.000000E+01  0.000000E+00  4.500000E+01
 9.000000E+01  0.000000E+00  4.500000E+01
 1.000000E+02  0.000000E+00  4.500000E+01
 0.000000E+00  1.000000E+00  4.500000E+01
 1.000000E+01  1.000000E+00  4.500000E+01
 2.000000E+01  1.000000E+00  4.500000E+01
 3.000000E+01  1.000000E+00  4.500000E+01
 4.000000E+01  1.000000E+00  4.500000E+01
 5.000000E+01  1.000000E+00  4.500000E+01
 6.000000E+01  1.000000E+00  4.500000E+01
 7.000000E+01  1.000000E+00  4.500000E+01
 8.000000E+01  1.000000E+00  4.500000E+01
 9.000000E+01  1.000000E+00  4.500000E+01
 1.000000E+02  1.000000E+00  4.500000E+01
 0.000000E+00  0.000000E+00  5.000000E+01
 1.000000E+01  0.000000E+00  5.000000E+01
 2.000000E+01  0.000000E+00  5.000000E+01
 3.000000E+01  0.000000E+00  5.000000E+01
 4.000000E+01  0.000000E+00  5.000000E+01
 5.000000E+01  0.000000E+00  5.000000E+01
 6.000000E+01  0.000000E+00  5.000000E+01
 7.000000E+01  0.000000E+00  5.000000E+01
 8.000000E+01  0.000000E+00  5.000000E+01
 9.000000E+01  0.000000E+00  5.000000E+01
 1.000000E+02  0.000000E+00  5.000000E+01
 0.000000E+00  1.000000E+00  5.000000E+01
 1.000000E+01  1.000000E+00  5.000000E+01
 2.000000E+01  1.000000E+00  5.000000E+01
 3.000000E+01  1.000000E+00  5.000000E+01
[...]
CELL_DATA      200
SCALARS Vlx                  float 1
LOOKUP_TABLE default
 1.876419E+00  2.485407E+00  2.928490E+00  2.957042E+00  2.774777E+00  2.520767E+00  2.262580E+00  2.026749E+00  1.820162E+00  1.641162E+00
 2.197559E+00  2.771981E+00  3.135199E+00  3.079215E+00  2.840883E+00  2.555242E+00  2.280387E+00  2.036093E+00  1.825394E+00  1.644652E+00
 2.963975E+00  3.413235E+00  3.567316E+00  3.323490E+00  2.969682E+00  2.621499E+00  2.314381E+00  2.053867E+00  1.835311E+00  1.651229E+00
 4.493716E+00  4.568980E+00  4.260684E+00  3.688405E+00  3.154635E+00  2.714668E+00  2.361672E+00  2.078455E+00  1.848985E+00  1.660273E+00
 7.483412E+00  6.543911E+00  5.255953E+00  4.163621E+00  3.383795E+00  2.827220E+00  2.418063E+00  2.107576E+00  1.865119E+00  1.670921E+00
 1.343582E+01  9.892364E+00  6.563944E+00  4.719273E+00  3.638044E+00  2.948980E+00  2.478279E+00  2.138460E+00  1.882166E+00  1.682150E+00
 2.563189E+01  1.561093E+01  8.070717E+00  5.293537E+00  3.890722E+00  3.067720E+00  2.536390E+00  2.168087E+00  1.898466E+00  1.692868E+00
 3.148753E+01  1.885993E+01  9.294546E+00  5.792283E+00  4.111062E+00  3.170603E+00  2.586433E+00  2.193497E+00  1.912412E+00  1.702029E+00
 3.425754E+01  2.061622E+01  1.011190E+01  6.151407E+00  4.272754E+00  3.246208E+00  2.623124E+00  2.212093E+00  1.922611E+00  1.708729E+00
 3.537147E+01  2.138679E+01  1.051473E+01  6.337665E+00  4.358053E+00  3.286257E+00  2.642581E+00  2.221969E+00  1.928044E+00  1.712308E+00
 3.537161E+01  2.138691E+01  1.051483E+01  6.337740E+00  4.358124E+00  3.286337E+00  2.642675E+00  2.222072E+00  1.928148E+00  1.712407E+00
 3.425822E+01  2.061684E+01  1.011242E+01  6.151837E+00  4.273138E+00  3.246581E+00  2.623499E+00  2.212458E+00  1.922951E+00  1.709038E+00
 3.148872E+01  1.886099E+01  9.295431E+00  5.793034E+00  4.111743E+00  3.171262E+00  2.587084E+00  2.194119E+00  1.912980E+00  1.702542E+00
 2.563339E+01  1.561228E+01  8.071878E+00  5.294567E+00  3.891682E+00  3.068658E+00  2.537309E+00  2.168954E+00  1.899251E+00  1.693574E+00
 1.343763E+01  9.894033E+00  6.565424E+00  4.720606E+00  3.639301E+00  2.950207E+00  2.479464E+00  2.139559E+00  1.883155E+00  1.683036E+00
 7.485058E+00  6.545626E+00  5.257645E+00  4.165229E+00  3.385350E+00  2.828733E+00  2.419500E+00  2.108890E+00  1.866293E+00  1.671973E+00
 4.495145E+00  4.570658E+00  4.262522E+00  3.690261E+00  3.156472E+00  2.716446E+00  2.363331E+00  2.079952E+00  1.850321E+00  1.661474E+00
 2.965254E+00  3.414891E+00  3.569287E+00  3.325579E+00  2.971772E+00  2.623493E+00  2.316213E+00  2.055512E+00  1.836787E+00  1.652569E+00
 2.198785E+00  2.773679E+00  3.137321E+00  3.081497E+00  2.843137E+00  2.557360E+00  2.282324E+00  2.037848E+00  1.826990E+00  1.646126E+00
 1.877675E+00  2.487150E+00  2.930632E+00  2.959288E+00  2.776973E+00  2.522861E+00  2.264549E+00  2.028582E+00  1.821865E+00  1.642775E+00


SCALARS Vly                  float 1
LOOKUP_TABLE default
 0.000000E+00  0.000000E+00  0.000000E+00  0.000000E+00  0.000000E+00  0.000000E+00  0.000000E+00  0.000000E+00  0.000000E+00  0.000000E+00
 0.000000E+00  0.000000E+00  0.000000E+00  0.000000E+00  0.000000E+00  0.000000E+00  0.000000E+00  0.000000E+00  0.000000E+00  0.000000E+00
 0.000000E+00  0.000000E+00  0.000000E+00  0.000000E+00  0.000000E+00  0.000000E+00  0.000000E+00  0.000000E+00  0.000000E+00  0.000000E+00
 0.000000E+00  0.000000E+00  0.000000E+00  0.000000E+00  0.000000E+00  0.000000E+00  0.000000E+00  0.000000E+00  0.000000E+00  0.000000E+00
 0.000000E+00  0.000000E+00  0.000000E+00  0.000000E+00  0.000000E+00  0.000000E+00  0.000000E+00  0.000000E+00  0.000000E+00  0.000000E+00
 0.000000E+00  0.000000E+00  0.000000E+00  0.000000E+00  0.000000E+00  0.000000E+00  0.000000E+00  0.000000E+00  0.000000E+00  0.000000E+00
 0.000000E+00  0.000000E+00  0.000000E+00  0.000000E+00  0.000000E+00  0.000000E+00  0.000000E+00  0.000000E+00  0.000000E+00  0.000000E+00
 0.000000E+00  0.000000E+00  0.000000E+00  0.000000E+00  0.000000E+00  0.000000E+00  0.000000E+00  0.000000E+00  0.000000E+00  0.000000E+00
 0.000000E+00  0.000000E+00  0.000000E+00  0.000000E+00  0.000000E+00  0.000000E+00  0.000000E+00  0.000000E+00  0.000000E+00  0.000000E+00
 0.000000E+00  0.000000E+00  0.000000E+00  0.000000E+00  0.000000E+00  0.000000E+00  0.000000E+00  0.000000E+00  0.000000E+00  0.000000E+00
 0.000000E+00  0.000000E+00  0.000000E+00  0.000000E+00  0.000000E+00  0.000000E+00  0.000000E+00  0.000000E+00  0.000000E+00  0.000000E+00
 0.000000E+00  0.000000E+00  0.000000E+00  0.000000E+00  0.000000E+00  0.000000E+00  0.000000E+00  0.000000E+00  0.000000E+00  0.000000E+00
 0.000000E+00  0.000000E+00  0.000000E+00  0.000000E+00  0.000000E+00  0.000000E+00  0.000000E+00  0.000000E+00  0.000000E+00  0.000000E+00
 0.000000E+00  0.000000E+00  0.000000E+00  0.000000E+00  0.000000E+00  0.000000E+00  0.000000E+00  0.000000E+00  0.000000E+00  0.000000E+00
 0.000000E+00  0.000000E+00  0.000000E+00  0.000000E+00  0.000000E+00  0.000000E+00  0.000000E+00  0.000000E+00  0.000000E+00  0.000000E+00
 0.000000E+00  0.000000E+00  0.000000E+00  0.000000E+00  0.000000E+00  0.000000E+00  0.000000E+00  0.000000E+00  0.000000E+00  0.000000E+00
 0.000000E+00  0.000000E+00  0.000000E+00  0.000000E+00  0.000000E+00  0.000000E+00  0.000000E+00  0.000000E+00  0.000000E+00  0.000000E+00
 0.000000E+00  0.000000E+00  0.000000E+00  0.000000E+00  0.000000E+00  0.000000E+00  0.000000E+00  0.000000E+00  0.000000E+00  0.000000E+00
 0.000000E+00  0.000000E+00  0.000000E+00  0.000000E+00  0.000000E+00  0.000000E+00  0.000000E+00  0.000000E+00  0.000000E+00  0.000000E+00
 0.000000E+00  0.000000E+00  0.000000E+00  0.000000E+00  0.000000E+00  0.000000E+00  0.000000E+00  0.000000E+00  0.000000E+00  0.000000E+00


SCALARS Vlz                  float 1
LOOKUP_TABLE default
-1.876411E+00 -1.234435E+00 -6.965257E-01 -3.676640E-01 -1.888089E-01 -9.593587E-02 -4.837911E-02 -2.386162E-02 -1.075428E-02 -2.945817E-03
-2.975177E+00 -1.887894E+00 -1.040432E+00 -5.418801E-01 -2.762442E-01 -1.398072E-01 -7.035678E-02 -3.466708E-02 -1.561831E-02 -4.282573E-03
-5.555830E+00 -3.259939E+00 -1.712821E+00 -8.691274E-01 -4.369960E-01 -2.195435E-01 -1.100559E-01 -5.412428E-02 -2.436471E-02 -6.686542E-03
-9.284200E+00 -4.764993E+00 -2.328946E+00 -1.139159E+00 -5.622082E-01 -2.797221E-01 -1.395034E-01 -6.842687E-02 -3.076726E-02 -8.445066E-03
-1.527126E+01 -6.328667E+00 -2.814795E+00 -1.319144E+00 -6.377669E-01 -3.139726E-01 -1.556981E-01 -7.614459E-02 -3.419025E-02 -9.381567E-03
-2.572643E+01 -7.572818E+00 -3.046533E+00 -1.373342E+00 -6.519254E-01 -3.178451E-01 -1.567688E-01 -7.644523E-02 -3.427695E-02 -9.398712E-03
-2.535787E+01 -7.299857E+00 -2.874937E+00 -1.275126E+00 -5.986212E-01 -2.897675E-01 -1.422853E-01 -6.920813E-02 -3.099274E-02 -8.488767E-03
-1.411979E+01 -5.492151E+00 -2.298225E+00 -1.027354E+00 -4.808020E-01 -2.317583E-01 -1.134381E-01 -5.507238E-02 -2.463817E-02 -6.735961E-03
-7.194685E+00 -3.311062E+00 -1.463879E+00 -6.633625E-01 -3.107156E-01 -1.494504E-01 -7.299939E-02 -3.540035E-02 -1.582778E-02 -4.310025E-03
-2.211055E+00 -1.098297E+00 -5.001645E-01 -2.285485E-01 -1.070662E-01 -5.137075E-02 -2.504369E-02 -1.214765E-02 -5.431763E-03 -1.449923E-03
 2.215818E+00  1.100669E+00  5.017527E-01  2.297853E-01  1.080978E-01  5.215919E-02  2.550748E-02  1.233909E-02  5.510387E-03  1.559160E-03
 7.199325E+00  3.313478E+00  1.465505E+00  6.646129E-01  3.117414E-01  1.502200E-01  7.344375E-02  3.558081E-02  1.590266E-02  4.417184E-03
 1.412416E+01  5.494642E+00  2.299908E+00  1.028620E+00  4.818116E-01  2.324919E-01  1.138501E-01  5.523786E-02  2.471021E-02  6.841136E-03
 2.536221E+01  7.302484E+00  2.876676E+00  1.276396E+00  5.995953E-01  2.904452E-01  1.426532E-01  6.935581E-02  3.106296E-02  8.592084E-03
 2.573089E+01  7.575564E+00  3.048303E+00  1.374589E+00  6.528370E-01  3.184469E-01  1.570844E-01  7.657483E-02  3.434671E-02  9.500344E-03
 1.527544E+01  6.331357E+00  2.816522E+00  1.320320E+00  6.385806E-01  3.144811E-01  1.559593E-01  7.625856E-02  3.426072E-02  9.481298E-03
 9.287702E+00  4.767399E+00  2.330506E+00  1.140189E+00  5.628818E-01  2.801254E-01  1.397128E-01  6.852796E-02  3.083759E-02  8.541201E-03
 5.558495E+00  3.261858E+00  1.714072E+00  8.699232E-01  4.374922E-01  2.198380E-01  1.102177E-01  5.421189E-02  2.442997E-02  6.774306E-03
 2.976885E+00  1.889146E+00  1.041232E+00  5.423687E-01  2.765451E-01  1.399944E-01  7.046896E-02  3.473313E-02  1.566823E-02  4.351395E-03
 1.877607E+00  1.235307E+00  6.970672E-01  3.679850E-01  1.890109E-01  9.606996E-02  4.846459E-02  2.391368E-02  1.079324E-02  3.001581E-03


SCALARS Vgx                  float 1
LOOKUP_TABLE default
 0.000000E+00  0.000000E+00  0.000000E+00  0.000000E+00  0.000000E+00  0.000000E+00  0.000000E+00  0.000000E+00  0.000000E+00  0.000000E+00
 0.000000E+00  0.000000E+00  0.000000E+00  0.000000E+00  0.000000E+00  0.000000E+00  0.000000E+00  0.000000E+00  0.000000E+00  0.000000E+00
 0.000000E+00  0.000000E+00  0.000000E+00  0.000000E+00  0.000000E+00  0.000000E+00  0.000000E+00  0.000000E+00  0.000000E+00  0.000000E+00
 0.000000E+00  0.000000E+00  0.000000E+00  0.000000E+00  0.000000E+00  0.000000E+00  0.000000E+00  0.000000E+00  0.000000E+00  0.000000E+00
 0.000000E+00  0.000000E+00  0.000000E+00  0.000000E+00  0.000000E+00  0.000000E+00  0.000000E+00  0.000000E+00  0.000000E+00  0.000000E+00
 0.000000E+00  0.000000E+00  0.000000E+00  0.000000E+00  0.000000E+00  0.000000E+00  0.000000E+00  0.000000E+00  0.000000E+00  0.000000E+00
 0.000000E+00  0.000000E+00  0.000000E+00  0.000000E+00  0.000000E+00  0.000000E+00  0.000000E+00  0.000000E+00  0.000000E+00  0.000000E+00
 0.000000E+00  0.000000E+00  0.000000E+00  0.000000E+00  0.000000E+00  0.000000E+00  0.000000E+00  0.000000E+00  0.000000E+00  0.000000E+00
 0.000000E+00  0.000000E+00  0.000000E+00  0.000000E+00  0.000000E+00  0.000000E+00  0.000000E+00  0.000000E+00  0.000000E+00  0.000000E+00
 0.000000E+00  0.000000E+00  0.000000E+00  0.000000E+00  0.000000E+00  0.000000E+00  0.000000E+00  0.000000E+00  0.000000E+00  0.000000E+00
 0.000000E+00  0.000000E+00  0.000000E+00  0.000000E+00  0.000000E+00  0.000000E+00  0.000000E+00  0.000000E+00  0.000000E+00  0.000000E+00
 0.000000E+00  0.000000E+00  0.000000E+00  0.000000E+00  0.000000E+00  0.000000E+00  0.000000E+00  0.000000E+00  0.000000E+00  0.000000E+00
 0.000000E+00  0.000000E+00  0.000000E+00  0.000000E+00  0.000000E+00  0.000000E+00  0.000000E+00  0.000000E+00  0.000000E+00  0.000000E+00
 0.000000E+00  0.000000E+00  0.000000E+00  0.000000E+00  0.000000E+00  0.000000E+00  0.000000E+00  0.000000E+00  0.000000E+00  0.000000E+00
 0.000000E+00  0.000000E+00  0.000000E+00  0.000000E+00  0.000000E+00  0.000000E+00  0.000000E+00  0.000000E+00  0.000000E+00  0.000000E+00
 0.000000E+00  0.000000E+00  0.000000E+00  0.000000E+00  0.000000E+00  0.000000E+00  0.000000E+00  0.000000E+00  0.000000E+00  0.000000E+00
 0.000000E+00  0.000000E+00  0.000000E+00  0.000000E+00  0.000000E+00  0.000000E+00  0.000000E+00  0.000000E+00  0.000000E+00  0.000000E+00
 0.000000E+00  0.000000E+00  0.000000E+00  0.000000E+00  0.000000E+00  0.000000E+00  0.000000E+00  0.000000E+00  0.000000E+00  0.000000E+00
 0.000000E+00  0.000000E+00  0.000000E+00  0.000000E+00  0.000000E+00  0.000000E+00  0.000000E+00  0.000000E+00  0.000000E+00  0.000000E+00
 0.000000E+00  0.000000E+00  0.000000E+00  0.000000E+00  0.000000E+00  0.000000E+00  0.000000E+00  0.000000E+00  0.000000E+00  0.000000E+00


SCALARS Vgy                  float 1
LOOKUP_TABLE default
 0.000000E+00  0.000000E+00  0.000000E+00  0.000000E+00  0.000000E+00  0.000000E+00  0.000000E+00  0.000000E+00  0.000000E+00  0.000000E+00
 0.000000E+00  0.000000E+00  0.000000E+00  0.000000E+00  0.000000E+00  0.000000E+00  0.000000E+00  0.000000E+00  0.000000E+00  0.000000E+00
 0.000000E+00  0.000000E+00  0.000000E+00  0.000000E+00  0.000000E+00  0.000000E+00  0.000000E+00  0.000000E+00  0.000000E+00  0.000000E+00
 0.000000E+00  0.000000E+00  0.000000E+00  0.000000E+00  0.000000E+00  0.000000E+00  0.000000E+00  0.000000E+00  0.000000E+00  0.000000E+00
 0.000000E+00  0.000000E+00  0.000000E+00  0.000000E+00  0.000000E+00  0.000000E+00  0.000000E+00  0.000000E+00  0.000000E+00  0.000000E+00
 0.000000E+00  0.000000E+00  0.000000E+00  0.000000E+00  0.000000E+00  0.000000E+00  0.000000E+00  0.000000E+00  0.000000E+00  0.000000E+00
 0.000000E+00  0.000000E+00  0.000000E+00  0.000000E+00  0.000000E+00  0.000000E+00  0.000000E+00  0.000000E+00  0.000000E+00  0.000000E+00
 0.000000E+00  0.000000E+00  0.000000E+00  0.000000E+00  0.000000E+00  0.000000E+00  0.000000E+00  0.000000E+00  0.000000E+00  0.000000E+00
 0.000000E+00  0.000000E+00  0.000000E+00  0.000000E+00  0.000000E+00  0.000000E+00  0.000000E+00  0.000000E+00  0.000000E+00  0.000000E+00
 0.000000E+00  0.000000E+00  0.000000E+00  0.000000E+00  0.000000E+00  0.000000E+00  0.000000E+00  0.000000E+00  0.000000E+00  0.000000E+00
 0.000000E+00  0.000000E+00  0.000000E+00  0.000000E+00  0.000000E+00  0.000000E+00  0.000000E+00  0.000000E+00  0.000000E+00  0.000000E+00
 0.000000E+00  0.000000E+00  0.000000E+00  0.000000E+00  0.000000E+00  0.000000E+00  0.000000E+00  0.000000E+00  0.000000E+00  0.000000E+00
 0.000000E+00  0.000000E+00  0.000000E+00  0.000000E+00  0.000000E+00  0.000000E+00  0.000000E+00  0.000000E+00  0.000000E+00  0.000000E+00
 0.000000E+00  0.000000E+00  0.000000E+00  0.000000E+00  0.000000E+00  0.000000E+00  0.000000E+00  0.000000E+00  0.000000E+00  0.000000E+00
 0.000000E+00  0.000000E+00  0.000000E+00  0.000000E+00  0.000000E+00  0.000000E+00  0.000000E+00  0.000000E+00  0.000000E+00  0.000000E+00
 0.000000E+00  0.000000E+00  0.000000E+00  0.000000E+00  0.000000E+00  0.000000E+00  0.000000E+00  0.000000E+00  0.000000E+00  0.000000E+00
 0.000000E+00  0.000000E+00  0.000000E+00  0.000000E+00  0.000000E+00  0.000000E+00  0.000000E+00  0.000000E+00  0.000000E+00  0.000000E+00
 0.000000E+00  0.000000E+00  0.000000E+00  0.000000E+00  0.000000E+00  0.000000E+00  0.000000E+00  0.000000E+00  0.000000E+00  0.000000E+00
 0.000000E+00  0.000000E+00  0.000000E+00  0.000000E+00  0.000000E+00  0.000000E+00  0.000000E+00  0.000000E+00  0.000000E+00  0.000000E+00
 0.000000E+00  0.000000E+00  0.000000E+00  0.000000E+00  0.000000E+00  0.000000E+00  0.000000E+00  0.000000E+00  0.000000E+00  0.000000E+00


SCALARS Vgz                  float 1
LOOKUP_TABLE default
 0.000000E+00  0.000000E+00  0.000000E+00  0.000000E+00  0.000000E+00  0.000000E+00  0.000000E+00  0.000000E+00  0.000000E+00  0.000000E+00
 0.000000E+00  0.000000E+00  0.000000E+00  0.000000E+00  0.000000E+00  0.000000E+00  0.000000E+00  0.000000E+00  0.000000E+00  0.000000E+00
 0.000000E+00  0.000000E+00  0.000000E+00  0.000000E+00  0.000000E+00  0.000000E+00  0.000000E+00  0.000000E+00  0.000000E+00  0.000000E+00
 0.000000E+00  0.000000E+00  0.000000E+00  0.000000E+00  0.000000E+00  0.000000E+00  0.000000E+00  0.000000E+00  0.000000E+00  0.000000E+00
 0.000000E+00  0.000000E+00  0.000000E+00  0.000000E+00  0.000000E+00  0.000000E+00  0.000000E+00  0.000000E+00  0.000000E+00  0.000000E+00
 0.000000E+00  0.000000E+00  0.000000E+00  0.000000E+00  0.000000E+00  0.000000E+00  0.000000E+00  0.000000E+00  0.000000E+00  0.000000E+00
 0.000000E+00  0.000000E+00  0.000000E+00  0.000000E+00  0.000000E+00  0.000000E+00  0.000000E+00  0.000000E+00  0.000000E+00  0.000000E+00
 0.000000E+00  0.000000E+00  0.000000E+00  0.000000E+00  0.000000E+00  0.000000E+00  0.000000E+00  0.000000E+00  0.000000E+00  0.000000E+00
 0.000000E+00  0.000000E+00  0.000000E+00  0.000000E+00  0.000000E+00  0.000000E+00  0.000000E+00  0.000000E+00  0.000000E+00  0.000000E+00
 0.000000E+00  0.000000E+00  0.000000E+00  0.000000E+00  0.000000E+00  0.000000E+00  0.000000E+00  0.000000E+00  0.000000E+00  0.000000E+00
 0.000000E+00  0.000000E+00  0.000000E+00  0.000000E+00  0.000000E+00  0.000000E+00  0.000000E+00  0.000000E+00  0.000000E+00  0.000000E+00
 0.000000E+00  0.000000E+00  0.000000E+00  0.000000E+00  0.000000E+00  0.000000E+00  0.000000E+00  0.000000E+00  0.000000E+00  0.000000E+00
 0.000000E+00  0.000000E+00  0.000000E+00  0.000000E+00  0.000000E+00  0.000000E+00  0.000000E+00  0.000000E+00  0.000000E+00  0.000000E+00
 0.000000E+00  0.000000E+00  0.000000E+00  0.000000E+00  0.000000E+00  0.000000E+00  0.000000E+00  0.000000E+00  0.000000E+00  0.000000E+00
 0.000000E+00  0.000000E+00  0.000000E+00  0.000000E+00  0.000000E+00  0.000000E+00  0.000000E+00  0.000000E+00  0.000000E+00  0.000000E+00
 0.000000E+00  0.000000E+00  0.000000E+00  0.000000E+00  0.000000E+00  0.000000E+00  0.000000E+00  0.000000E+00  0.000000E+00  0.000000E+00
 0.000000E+00  0.000000E+00  0.000000E+00  0.000000E+00  0.000000E+00  0.000000E+00  0.000000E+00  0.000000E+00  0.000000E+00  0.000000E+00
 0.000000E+00  0.000000E+00  0.000000E+00  0.000000E+00  0.000000E+00  0.000000E+00  0.000000E+00  0.000000E+00  0.000000E+00  0.000000E+00
 0.000000E+00  0.000000E+00  0.000000E+00  0.000000E+00  0.000000E+00  0.000000E+00  0.000000E+00  0.000000E+00  0.000000E+00  0.000000E+00
 0.000000E+00  0.000000E+00  0.000000E+00  0.000000E+00  0.000000E+00  0.000000E+00  0.000000E+00  0.000000E+00  0.000000E+00  0.000000E+00


SCALARS Material_ID          int 1
LOOKUP_TABLE default
  1
  1
  1
  1
  1
  1
  1
  1
  1
  1
  1
  1
  1
  1
  1
  1
  1
  1
  1
  1
  1
  1
  1
  1
  1
  1
  1
  1
  1
  1
  1
  1
  1
  1
  1
  1
  1
  1
  1
  1
  1
  1
  1
  1
  1
  1
  1
  1
  1
  1
  1
  1
  1
  1
  1
  1
  1
  1
  1
  1
  1
  1
  1
  1
  1
  1
  1
  1
  1
  1
  1
  1
  1
  1
  1
  1
  1
  1
  1
  1
  1
  1
  1
  1
  1
  1
  1
  1
  1
  1
  1
  1
  1
  1
  1
  1
  1
  1
  1
  1
  1
  1
  1
  1
  1
  1
  1
  1
  1
  1
  1
  1
  1
  1
  1
  1
  1
  1
  1
  1
  1
  1
  1
  1
  1
  1
  1
  1
  1
  1
  1
  1
  1
  1
  1
  1
  1
  1
  1
  1
  1
  1
  1
  1
  1
  1
  1
  1
  1
  1
  1
  1
  1
  1
  1
  1
  1
  1
  1
  1
  1
  1
  1
  1
  1
  1
  1
  1
  1
  1
  1
  1
  1
  1
  1
  1
  1
  1
  1
  1
  1
  1
  1
  1
  1
  1
  1
  1
  1
  1
  1
  1
  1
  1
  1
  1
  1
  1
  1
  1


