# vtk DataFile Version 2.0
PFLOTRAN output
ASCII
DATASET UNSTRUCTURED_GRID
POINTS          462 float
 0.000000E+00  0.000000E+00  0.000000E+00
 2.000000E+03  0.000000E+00  0.000000E+00
 4.000000E+03  0.000000E+00  0.000000E+00
 6.000000E+03  0.000000E+00  0.000000E+00
 8.000000E+03  0.000000E+00  0.000000E+00
 1.000000E+04  0.000000E+00  0.000000E+00
 1.200000E+04  0.000000E+00  0.000000E+00
 1.400000E+04  0.000000E+00  0.000000E+00
 1.600000E+04  0.000000E+00  0.000000E+00
 1.800000E+04  0.000000E+00  0.000000E+00
 2.000000E+04  0.000000E+00  0.000000E+00
 0.000000E+00  1.000000E+00  0.000000E+00
 2.000000E+03  1.000000E+00  0.000000E+00
 4.000000E+03  1.000000E+00  0.000000E+00
 6.000000E+03  1.000000E+00  0.000000E+00
 8.000000E+03  1.000000E+00  0.000000E+00
 1.000000E+04  1.000000E+00  0.000000E+00
 1.200000E+04  1.000000E+00  0.000000E+00
 1.400000E+04  1.000000E+00  0.000000E+00
 1.600000E+04  1.000000E+00  0.000000E+00
 1.800000E+04  1.000000E+00  0.000000E+00
 2.000000E+04  1.000000E+00  0.000000E+00
 0.000000E+00  0.000000E+00  5.000000E+00
 2.000000E+03  0.000000E+00  5.000000E+00
 4.000000E+03  0.000000E+00  5.000000E+00
 6.000000E+03  0.000000E+00  5.000000E+00
 8.000000E+03  0.000000E+00  5.000000E+00
 1.000000E+04  0.000000E+00  5.000000E+00
 1.200000E+04  0.000000E+00  5.000000E+00
 1.400000E+04  0.000000E+00  5.000000E+00
 1.600000E+04  0.000000E+00  5.000000E+00
 1.800000E+04  0.000000E+00  5.000000E+00
 2.000000E+04  0.000000E+00  5.000000E+00
 0.000000E+00  1.000000E+00  5.000000E+00
 2.000000E+03  1.000000E+00  5.000000E+00
 4.000000E+03  1.000000E+00  5.000000E+00
 6.000000E+03  1.000000E+00  5.000000E+00
 8.000000E+03  1.000000E+00  5.000000E+00
 1.000000E+04  1.000000E+00  5.000000E+00
 1.200000E+04  1.000000E+00  5.000000E+00
 1.400000E+04  1.000000E+00  5.000000E+00
 1.600000E+04  1.000000E+00  5.000000E+00
 1.800000E+04  1.000000E+00  5.000000E+00
 2.000000E+04  1.000000E+00  5.000000E+00
 0.000000E+00  0.000000E+00  1.000000E+01
 2.000000E+03  0.000000E+00  1.000000E+01
 4.000000E+03  0.000000E+00  1.000000E+01
 6.000000E+03  0.000000E+00  1.000000E+01
 8.000000E+03  0.000000E+00  1.000000E+01
 1.000000E+04  0.000000E+00  1.000000E+01
 1.200000E+04  0.000000E+00  1.000000E+01
 1.400000E+04  0.000000E+00  1.000000E+01
 1.600000E+04  0.000000E+00  1.000000E+01
 1.800000E+04  0.000000E+00  1.000000E+01
 2.000000E+04  0.000000E+00  1.000000E+01
 0.000000E+00  1.000000E+00  1.000000E+01
 2.000000E+03  1.000000E+00  1.000000E+01
 4.000000E+03  1.000000E+00  1.000000E+01
 6.000000E+03  1.000000E+00  1.000000E+01
 8.000000E+03  1.000000E+00  1.000000E+01
 1.000000E+04  1.000000E+00  1.000000E+01
 1.200000E+04  1.000000E+00  1.000000E+01
 1.400000E+04  1.000000E+00  1.000000E+01
 1.600000E+04  1.000000E+00  1.000000E+01
 1.800000E+04  1.000000E+00  1.000000E+01
 2.000000E+04  1.000000E+00  1.000000E+01
 0.000000E+00  0.000000E+00  1.500000E+01
 2.000000E+03  0.000000E+00  1.500000E+01
 4.000000E+03  0.000000E+00  1.500000E+01
 6.000000E+03  0.000000E+00  1.500000E+01
 8.000000E+03  0.000000E+00  1.500000E+01
 1.000000E+04  0.000000E+00  1.500000E+01
 1.200000E+04  0.000000E+00  1.500000E+01
 1.400000E+04  0.000000E+00  1.500000E+01
 1.600000E+04  0.000000E+00  1.500000E+01
 1.800000E+04  0.000000E+00  1.500000E+01
 2.000000E+04  0.000000E+00  1.500000E+01
 0.000000E+00  1.000000E+00  1.500000E+01
 2.000000E+03  1.000000E+00  1.500000E+01
 4.000000E+03  1.000000E+00  1.500000E+01
 6.000000E+03  1.000000E+00  1.500000E+01
 8.000000E+03  1.000000E+00  1.500000E+01
 1.000000E+04  1.000000E+00  1.500000E+01
 1.200000E+04  1.000000E+00  1.500000E+01
 1.400000E+04  1.000000E+00  1.500000E+01
 1.600000E+04  1.000000E+00  1.500000E+01
 1.800000E+04  1.000000E+00  1.500000E+01
 2.000000E+04  1.000000E+00  1.500000E+01
 0.000000E+00  0.000000E+00  2.000000E+01
 2.000000E+03  0.000000E+00  2.000000E+01
 4.000000E+03  0.000000E+00  2.000000E+01
 6.000000E+03  0.000000E+00  2.000000E+01
 8.000000E+03  0.000000E+00  2.000000E+01
 1.000000E+04  0.000000E+00  2.000000E+01
 1.200000E+04  0.000000E+00  2.000000E+01
 1.400000E+04  0.000000E+00  2.000000E+01
 1.600000E+04  0.000000E+00  2.000000E+01
 1.800000E+04  0.000000E+00  2.000000E+01
 2.000000E+04  0.000000E+00  2.000000E+01
 0.000000E+00  1.000000E+00  2.000000E+01
 2.000000E+03  1.000000E+00  2.000000E+01
 4.000000E+03  1.000000E+00  2.000000E+01
 6.000000E+03  1.000000E+00  2.000000E+01
 8.000000E+03  1.000000E+00  2.000000E+01
 1.000000E+04  1.000000E+00  2.000000E+01
 1.200000E+04  1.000000E+00  2.000000E+01
 1.400000E+04  1.000000E+00  2.000000E+01
 1.600000E+04  1.000000E+00  2.000000E+01
 1.800000E+04  1.000000E+00  2.000000E+01
 2.000000E+04  1.000000E+00  2.000000E+01
 0.000000E+00  0.000000E+00  2.500000E+01
 2.000000E+03  0.000000E+00  2.500000E+01
 4.000000E+03  0.000000E+00  2.500000E+01
 6.000000E+03  0.000000E+00  2.500000E+01
 8.000000E+03  0.000000E+00  2.500000E+01
 1.000000E+04  0.000000E+00  2.500000E+01
 1.200000E+04  0.000000E+00  2.500000E+01
 1.400000E+04  0.000000E+00  2.500000E+01
 1.600000E+04  0.000000E+00  2.500000E+01
 1.800000E+04  0.000000E+00  2.500000E+01
 2.000000E+04  0.000000E+00  2.500000E+01
 0.000000E+00  1.000000E+00  2.500000E+01
 2.000000E+03  1.000000E+00  2.500000E+01
 4.000000E+03  1.000000E+00  2.500000E+01
 6.000000E+03  1.000000E+00  2.500000E+01
 8.000000E+03  1.000000E+00  2.500000E+01
 1.000000E+04  1.000000E+00  2.500000E+01
 1.200000E+04  1.000000E+00  2.500000E+01
 1.400000E+04  1.000000E+00  2.500000E+01
 1.600000E+04  1.000000E+00  2.500000E+01
 1.800000E+04  1.000000E+00  2.500000E+01
 2.000000E+04  1.000000E+00  2.500000E+01
 0.000000E+00  0.000000E+00  3.000000E+01
 2.000000E+03  0.000000E+00  3.000000E+01
 4.000000E+03  0.000000E+00  3.000000E+01
 6.000000E+03  0.000000E+00  3.000000E+01
 8.000000E+03  0.000000E+00  3.000000E+01
 1.000000E+04  0.000000E+00  3.000000E+01
 1.200000E+04  0.000000E+00  3.000000E+01
 1.400000E+04  0.000000E+00  3.000000E+01
 1.600000E+04  0.000000E+00  3.000000E+01
 1.800000E+04  0.000000E+00  3.000000E+01
 2.000000E+04  0.000000E+00  3.000000E+01
 0.000000E+00  1.000000E+00  3.000000E+01
 2.000000E+03  1.000000E+00  3.000000E+01
 4.000000E+03  1.000000E+00  3.000000E+01
 6.000000E+03  1.000000E+00  3.000000E+01
 8.000000E+03  1.000000E+00  3.000000E+01
 1.000000E+04  1.000000E+00  3.000000E+01
 1.200000E+04  1.000000E+00  3.000000E+01
 1.400000E+04  1.000000E+00  3.000000E+01
 1.600000E+04  1.000000E+00  3.000000E+01
 1.800000E+04  1.000000E+00  3.000000E+01
 2.000000E+04  1.000000E+00  3.000000E+01
 0.000000E+00  0.000000E+00  3.500000E+01
 2.000000E+03  0.000000E+00  3.500000E+01
 4.000000E+03  0.000000E+00  3.500000E+01
 6.000000E+03  0.000000E+00  3.500000E+01
 8.000000E+03  0.000000E+00  3.500000E+01
 1.000000E+04  0.000000E+00  3.500000E+01
 1.200000E+04  0.000000E+00  3.500000E+01
 1.400000E+04  0.000000E+00  3.500000E+01
 1.600000E+04  0.000000E+00  3.500000E+01
 1.800000E+04  0.000000E+00  3.500000E+01
 2.000000E+04  0.000000E+00  3.500000E+01
 0.000000E+00  1.000000E+00  3.500000E+01
 2.000000E+03  1.000000E+00  3.500000E+01
 4.000000E+03  1.000000E+00  3.500000E+01
 6.000000E+03  1.000000E+00  3.500000E+01
 8.000000E+03  1.000000E+00  3.500000E+01
 1.000000E+04  1.000000E+00  3.500000E+01
 1.200000E+04  1.000000E+00  3.500000E+01
 1.400000E+04  1.000000E+00  3.500000E+01
 1.600000E+04  1.000000E+00  3.500000E+01
 1.800000E+04  1.000000E+00  3.500000E+01
 2.000000E+04  1.000000E+00  3.500000E+01
 0.000000E+00  0.000000E+00  4.000000E+01
 2.000000E+03  0.000000E+00  4.000000E+01
 4.000000E+03  0.000000E+00  4.000000E+01
 6.000000E+03  0.000000E+00  4.000000E+01
 8.000000E+03  0.000000E+00  4.000000E+01
 1.000000E+04  0.000000E+00  4.000000E+01
 1.200000E+04  0.000000E+00  4.000000E+01
 1.400000E+04  0.000000E+00  4.000000E+01
 1.600000E+04  0.000000E+00  4.000000E+01
 1.800000E+04  0.000000E+00  4.000000E+01
 2.000000E+04  0.000000E+00  4.000000E+01
 0.000000E+00  1.000000E+00  4.000000E+01
 2.000000E+03  1.000000E+00  4.000000E+01
 4.000000E+03  1.000000E+00  4.000000E+01
 6.000000E+03  1.000000E+00  4.000000E+01
 8.000000E+03  1.000000E+00  4.000000E+01
 1.000000E+04  1.000000E+00  4.000000E+01
 1.200000E+04  1.000000E+00  4.000000E+01
 1.400000E+04  1.000000E+00  4.000000E+01
 1.600000E+04  1.000000E+00  4.000000E+01
 1.800000E+04  1.000000E+00  4.000000E+01
 2.000000E+04  1.000000E+00  4.000000E+01
 0.000000E+00  0.000000E+00  4.500000E+01
 2.000000E+03  0.000000E+00  4.500000E+01
 4.000000E+03  0.000000E+00  4.500000E+01
 6.000000E+03  0.000000E+00  4.500000E+01
 8.000000E+03  0.000000E+00  4.500000E+01
 1.000000E+04  0.000000E+00  4.500000E+01
 1.200000E+04  0.000000E+00  4.500000E+01
 1.400000E+04  0.000000E+00  4.500000E+01
 1.600000E+04  0.000000E+00  4.500000E+01
 1.800000E+04  0.000000E+00  4.500000E+01
 2.000000E+04  0.000000E+00  4.500000E+01
 0.000000E+00  1.000000E+00  4.500000E+01
 2.000000E+03  1.000000E+00  4.500000E+01
 4.000000E+03  1.000000E+00  4.500000E+01
 6.000000E+03  1.000000E+00  4.500000E+01
 8.000000E+03  1.000000E+00  4.500000E+01
 1.000000E+04  1.000000E+00  4.500000E+01
 1.200000E+04  1.000000E+00  4.500000E+01
 1.400000E+04  1.000000E+00  4.500000E+01
 1.600000E+04  1.000000E+00  4.500000E+01
 1.800000E+04  1.000000E+00  4.500000E+01
 2.000000E+04  1.000000E+00  4.500000E+01
 0.000000E+00  0.000000E+00  5.000000E+01
 2.000000E+03  0.000000E+00  5.000000E+01
 4.000000E+03  0.000000E+00  5.000000E+01
 6.000000E+03  0.000000E+00  5.000000E+01
 8.000000E+03  0.000000E+00  5.000000E+01
 1.000000E+04  0.000000E+00  5.000000E+01
 1.200000E+04  0.000000E+00  5.000000E+01
 1.400000E+04  0.000000E+00  5.000000E+01
 1.600000E+04  0.000000E+00  5.000000E+01
 1.800000E+04  0.000000E+00  5.000000E+01
 2.000000E+04  0.000000E+00  5.000000E+01
 0.000000E+00  1.000000E+00  5.000000E+01
 2.000000E+03  1.000000E+00  5.000000E+01
 4.000000E+03  1.000000E+00  5.000000E+01
 6.000000E+03  1.000000E+00  5.000000E+01
[...]
CELL_DATA      200
SCALARS Porosity             float 1
LOOKUP_TABLE default
 4.377100E-01  4.377099E-01  4.377099E-01  4.377099E-01  4.377099E-01  4.377099E-01  4.377099E-01  4.377099E-01  4.377099E-01  4.377099E-01
 4.377100E-01  4.377099E-01  4.377099E-01  4.377099E-01  4.377099E-01  4.377099E-01  4.377099E-01  4.377099E-01  4.377099E-01  4.377099E-01
 4.377100E-01  4.377099E-01  4.377099E-01  4.377099E-01  4.377099E-01  4.377099E-01  4.377099E-01  4.377099E-01  4.377099E-01  4.377099E-01
 4.377100E-01  4.377099E-01  4.377099E-01  4.377099E-01  4.377099E-01  4.377099E-01  4.377099E-01  4.377099E-01  4.377099E-01  4.377099E-01
 4.377100E-01  4.377099E-01  4.377099E-01  4.377099E-01  4.377099E-01  4.377099E-01  4.377099E-01  4.377099E-01  4.377099E-01  4.377099E-01
 4.377100E-01  4.377100E-01  4.377099E-01  4.377099E-01  4.377099E-01  4.377099E-01  4.377099E-01  4.377099E-01  4.377099E-01  4.377099E-01
 4.377097E-01  4.377100E-01  4.377099E-01  4.377099E-01  4.377099E-01  4.377099E-01  4.377099E-01  4.377099E-01  4.377099E-01  4.377099E-01
 4.377097E-01  4.377100E-01  4.377099E-01  4.377099E-01  4.377099E-01  4.377099E-01  4.377099E-01  4.377099E-01  4.377099E-01  4.377099E-01
 4.377097E-01  4.377100E-01  4.377099E-01  4.377099E-01  4.377099E-01  4.377099E-01  4.377099E-01  4.377099E-01  4.377099E-01  4.377099E-01
 4.377097E-01  4.377100E-01  4.377099E-01  4.377099E-01  4.377099E-01  4.377099E-01  4.377099E-01  4.377099E-01  4.377099E-01  4.377099E-01
 4.377097E-01  4.377100E-01  4.377099E-01  4.377099E-01  4.377099E-01  4.377099E-01  4.377099E-01  4.377099E-01  4.377099E-01  4.377099E-01
 4.377097E-01  4.377100E-01  4.377099E-01  4.377099E-01  4.377099E-01  4.377099E-01  4.377099E-01  4.377099E-01  4.377099E-01  4.377099E-01
 4.377097E-01  4.377100E-01  4.377099E-01  4.377099E-01  4.377099E-01  4.377099E-01  4.377099E-01  4.377099E-01  4.377099E-01  4.377099E-01
 4.377097E-01  4.377100E-01  4.377099E-01  4.377099E-01  4.377099E-01  4.377099E-01  4.377099E-01  4.377099E-01  4.377099E-01  4.377099E-01
 4.377100E-01  4.377100E-01  4.377099E-01  4.377099E-01  4.377099E-01  4.377099E-01  4.377099E-01  4.377099E-01  4.377099E-01  4.377099E-01
 4.377100E-01  4.377100E-01  4.377099E-01  4.377099E-01  4.377099E-01  4.377099E-01  4.377099E-01  4.377099E-01  4.377099E-01  4.377099E-01
 4.377100E-01  4.377100E-01  4.377099E-01  4.377099E-01  4.377099E-01  4.377099E-01  4.377099E-01  4.377099E-01  4.377099E-01  4.377099E-01
 4.377100E-01  4.377100E-01  4.377099E-01  4.377099E-01  4.377099E-01  4.377099E-01  4.377099E-01  4.377099E-01  4.377099E-01  4.377099E-01
 4.377100E-01  4.377100E-01  4.377100E-01  4.377099E-01  4.377099E-01  4.377099E-01  4.377099E-01  4.377099E-01  4.377099E-01  4.377099E-01
 4.377100E-01  4.377100E-01  4.377100E-01  4.377099E-01  4.377099E-01  4.377099E-01  4.377099E-01  4.377099E-01  4.377099E-01  4.377099E-01


SCALARS Permeability         float 1
LOOKUP_TABLE default
 8.829803E-13  8.829803E-13  8.829802E-13  8.829802E-13  8.829802E-13  8.829802E-13  8.829802E-13  8.829802E-13  8.829802E-13  8.829802E-13
 8.829803E-13  8.829803E-13  8.829802E-13  8.829802E-13  8.829802E-13  8.829802E-13  8.829802E-13  8.829802E-13  8.829802E-13  8.829802E-13
 8.829803E-13  8.829803E-13  8.829802E-13  8.829802E-13  8.829802E-13  8.829802E-13  8.829802E-13  8.829802E-13  8.829802E-13  8.829802E-13
 8.829804E-13  8.829803E-13  8.829802E-13  8.829802E-13  8.829802E-13  8.829802E-13  8.829802E-13  8.829802E-13  8.829802E-13  8.829802E-13
 8.829804E-13  8.829803E-13  8.829802E-13  8.829802E-13  8.829802E-13  8.829802E-13  8.829802E-13  8.829802E-13  8.829802E-13  8.829802E-13
 8.829804E-13  8.829803E-13  8.829802E-13  8.829802E-13  8.829802E-13  8.829802E-13  8.829802E-13  8.829802E-13  8.829802E-13  8.829802E-13
 8.829792E-13  8.829803E-13  8.829802E-13  8.829802E-13  8.829802E-13  8.829802E-13  8.829802E-13  8.829802E-13  8.829802E-13  8.829802E-13
 8.829792E-13  8.829803E-13  8.829802E-13  8.829802E-13  8.829802E-13  8.829802E-13  8.829802E-13  8.829802E-13  8.829802E-13  8.829802E-13
 8.829792E-13  8.829803E-13  8.829803E-13  8.829802E-13  8.829802E-13  8.829802E-13  8.829802E-13  8.829802E-13  8.829802E-13  8.829802E-13
 8.829792E-13  8.829803E-13  8.829803E-13  8.829802E-13  8.829802E-13  8.829802E-13  8.829802E-13  8.829802E-13  8.829802E-13  8.829802E-13
 8.829792E-13  8.829803E-13  8.829803E-13  8.829802E-13  8.829802E-13  8.829802E-13  8.829802E-13  8.829802E-13  8.829802E-13  8.829802E-13
 8.829792E-13  8.829803E-13  8.829803E-13  8.829802E-13  8.829802E-13  8.829802E-13  8.829802E-13  8.829802E-13  8.829802E-13  8.829802E-13
 8.829792E-13  8.829803E-13  8.829803E-13  8.829802E-13  8.829802E-13  8.829802E-13  8.829802E-13  8.829802E-13  8.829802E-13  8.829802E-13
 8.829792E-13  8.829803E-13  8.829803E-13  8.829802E-13  8.829802E-13  8.829802E-13  8.829802E-13  8.829802E-13  8.829802E-13  8.829802E-13
 8.829804E-13  8.829803E-13  8.829803E-13  8.829802E-13  8.829802E-13  8.829802E-13  8.829802E-13  8.829802E-13  8.829802E-13  8.829802E-13
 8.829804E-13  8.829803E-13  8.829803E-13  8.829802E-13  8.829802E-13  8.829802E-13  8.829802E-13  8.829802E-13  8.829802E-13  8.829802E-13
 8.829804E-13  8.829803E-13  8.829803E-13  8.829803E-13  8.829802E-13  8.829802E-13  8.829802E-13  8.829802E-13  8.829802E-13  8.829802E-13
 8.829804E-13  8.829803E-13  8.829803E-13  8.829803E-13  8.829802E-13  8.829802E-13  8.829802E-13  8.829802E-13  8.829802E-13  8.829802E-13
 8.829804E-13  8.829803E-13  8.829803E-13  8.829803E-13  8.829802E-13  8.829802E-13  8.829802E-13  8.829802E-13  8.829802E-13  8.829802E-13
 8.829804E-13  8.829803E-13  8.829803E-13  8.829803E-13  8.829802E-13  8.829802E-13  8.829802E-13  8.829802E-13  8.829802E-13  8.829802E-13


SCALARS Liquid_Pressure      float 1
LOOKUP_TABLE default
 8.356056E+06  7.982456E+06  7.806441E+06  7.699824E+06  7.629354E+06  7.580724E+06  7.546069E+06  7.520479E+06  7.500699E+06  7.484509E+06
 8.310888E+06  7.937293E+06  7.761282E+06  7.654668E+06  7.584199E+06  7.535570E+06  7.500917E+06  7.475327E+06  7.455547E+06  7.439358E+06
 8.265725E+06  7.892130E+06  7.716124E+06  7.609512E+06  7.539045E+06  7.490418E+06  7.455765E+06  7.430176E+06  7.410397E+06  7.394208E+06
 8.220569E+06  7.846969E+06  7.670967E+06  7.564358E+06  7.493893E+06  7.445267E+06  7.410615E+06  7.385026E+06  7.365248E+06  7.349059E+06
 8.175418E+06  7.801809E+06  7.625811E+06  7.519205E+06  7.448742E+06  7.400117E+06  7.365466E+06  7.339878E+06  7.320100E+06  7.303911E+06
 8.130274E+06  7.756650E+06  7.580657E+06  7.474054E+06  7.403592E+06  7.354968E+06  7.320318E+06  7.294731E+06  7.274953E+06  7.258765E+06
 8.085136E+06  7.711492E+06  7.535504E+06  7.428903E+06  7.358443E+06  7.309821E+06  7.275171E+06  7.249585E+06  7.229808E+06  7.213620E+06
 8.039991E+06  7.666336E+06  7.490352E+06  7.383754E+06  7.313296E+06  7.264675E+06  7.230026E+06  7.204440E+06  7.184664E+06  7.168476E+06
 7.994841E+06  7.621181E+06  7.445201E+06  7.338606E+06  7.268150E+06  7.219530E+06  7.184882E+06  7.159297E+06  7.139521E+06  7.123334E+06
 7.949685E+06  7.576027E+06  7.400052E+06  7.293460E+06  7.223005E+06  7.174386E+06  7.139739E+06  7.114155E+06  7.094379E+06  7.078193E+06
 7.904523E+06  7.530875E+06  7.354904E+06  7.248314E+06  7.177861E+06  7.129244E+06  7.094598E+06  7.069014E+06  7.049239E+06  7.033053E+06
 7.859355E+06  7.485724E+06  7.309757E+06  7.203170E+06  7.132719E+06  7.084103E+06  7.049458E+06  7.023874E+06  7.004100E+06  6.987914E+06
 7.814182E+06  7.440574E+06  7.264612E+06  7.158027E+06  7.087578E+06  7.038963E+06  7.004319E+06  6.978736E+06  6.958962E+06  6.942777E+06
 7.769002E+06  7.395425E+06  7.219467E+06  7.112886E+06  7.042438E+06  6.993824E+06  6.959181E+06  6.933599E+06  6.913825E+06  6.897641E+06
 7.723817E+06  7.350278E+06  7.174324E+06  7.067745E+06  6.997300E+06  6.948687E+06  6.914045E+06  6.888463E+06  6.868690E+06  6.852506E+06
 7.678637E+06  7.305131E+06  7.129183E+06  7.022606E+06  6.952162E+06  6.903551E+06  6.868910E+06  6.843329E+06  6.823556E+06  6.807372E+06
 7.633464E+06  7.259986E+06  7.084042E+06  6.977469E+06  6.907026E+06  6.858416E+06  6.823776E+06  6.798196E+06  6.778423E+06  6.762240E+06
 7.588296E+06  7.214843E+06  7.038903E+06  6.932332E+06  6.861892E+06  6.813283E+06  6.778643E+06  6.753064E+06  6.733292E+06  6.717109E+06
 7.543135E+06  7.169700E+06  6.993765E+06  6.887197E+06  6.816758E+06  6.768150E+06  6.733512E+06  6.707933E+06  6.688162E+06  6.671979E+06
 7.497980E+06  7.124559E+06  6.948628E+06  6.842063E+06  6.771626E+06  6.723020E+06  6.688382E+06  6.662803E+06  6.643033E+06  6.626851E+06


SCALARS Temperature          float 1
LOOKUP_TABLE default
 1.500501E+02  1.500281E+02  1.500176E+02  1.500113E+02  1.500071E+02  1.500043E+02  1.500022E+02  1.500007E+02  1.499995E+02  1.499986E+02
 1.500501E+02  1.500281E+02  1.500176E+02  1.500113E+02  1.500071E+02  1.500043E+02  1.500022E+02  1.500007E+02  1.499995E+02  1.499986E+02
 1.500501E+02  1.500281E+02  1.500176E+02  1.500113E+02  1.500071E+02  1.500043E+02  1.500022E+02  1.500007E+02  1.499995E+02  1.499986E+02
 1.500500E+02  1.500281E+02  1.500176E+02  1.500113E+02  1.500071E+02  1.500043E+02  1.500022E+02  1.500007E+02  1.499995E+02  1.499986E+02
 1.500500E+02  1.500281E+02  1.500176E+02  1.500113E+02  1.500071E+02  1.500043E+02  1.500022E+02  1.500007E+02  1.499995E+02  1.499986E+02
 1.500500E+02  1.500281E+02  1.500176E+02  1.500113E+02  1.500071E+02  1.500043E+02  1.500022E+02  1.500007E+02  1.499995E+02  1.499986E+02
 1.500498E+02  1.500281E+02  1.500176E+02  1.500113E+02  1.500071E+02  1.500043E+02  1.500022E+02  1.500007E+02  1.499995E+02  1.499986E+02
 1.500498E+02  1.500281E+02  1.500176E+02  1.500113E+02  1.500071E+02  1.500043E+02  1.500022E+02  1.500007E+02  1.499995E+02  1.499986E+02
 1.500498E+02  1.500281E+02  1.500176E+02  1.500113E+02  1.500071E+02  1.500043E+02  1.500022E+02  1.500007E+02  1.499995E+02  1.499986E+02
 1.500499E+02  1.500281E+02  1.500176E+02  1.500113E+02  1.500071E+02  1.500043E+02  1.500022E+02  1.500007E+02  1.499995E+02  1.499986E+02
 1.500499E+02  1.500281E+02  1.500176E+02  1.500113E+02  1.500071E+02  1.500043E+02  1.500022E+02  1.500007E+02  1.499995E+02  1.499986E+02
 1.500499E+02  1.500281E+02  1.500177E+02  1.500113E+02  1.500071E+02  1.500043E+02  1.500022E+02  1.500007E+02  1.499995E+02  1.499986E+02
 1.500500E+02  1.500281E+02  1.500177E+02  1.500113E+02  1.500072E+02  1.500043E+02  1.500022E+02  1.500007E+02  1.499995E+02  1.499986E+02
 1.500500E+02  1.500281E+02  1.500177E+02  1.500113E+02  1.500072E+02  1.500043E+02  1.500022E+02  1.500007E+02  1.499995E+02  1.499986E+02
 1.500503E+02  1.500281E+02  1.500177E+02  1.500113E+02  1.500072E+02  1.500043E+02  1.500022E+02  1.500007E+02  1.499995E+02  1.499986E+02
 1.500503E+02  1.500281E+02  1.500177E+02  1.500113E+02  1.500072E+02  1.500043E+02  1.500022E+02  1.500007E+02  1.499995E+02  1.499986E+02
 1.500503E+02  1.500281E+02  1.500177E+02  1.500113E+02  1.500072E+02  1.500043E+02  1.500022E+02  1.500007E+02  1.499995E+02  1.499986E+02
 1.500503E+02  1.500281E+02  1.500177E+02  1.500113E+02  1.500072E+02  1.500043E+02  1.500022E+02  1.500007E+02  1.499995E+02  1.499986E+02
 1.500503E+02  1.500281E+02  1.500177E+02  1.500113E+02  1.500072E+02  1.500043E+02  1.500022E+02  1.500007E+02  1.499995E+02  1.499986E+02
 1.500502E+02  1.500282E+02  1.500177E+02  1.500113E+02  1.500072E+02  1.500043E+02  1.500022E+02  1.500007E+02  1.499995E+02  1.499986E+02


SCALARS pH                   float 1
LOOKUP_TABLE default
 6.144496E+00  6.144464E+00  6.144448E+00  6.144439E+00  6.144433E+00  6.144429E+00  6.144425E+00  6.144423E+00  6.144421E+00  6.144420E+00
 6.144496E+00  6.144464E+00  6.144448E+00  6.144439E+00  6.144433E+00  6.144429E+00  6.144425E+00  6.144423E+00  6.144421E+00  6.144420E+00
 6.144496E+00  6.144464E+00  6.144448E+00  6.144439E+00  6.144433E+00  6.144429E+00  6.144425E+00  6.144423E+00  6.144422E+00  6.144420E+00
 6.144496E+00  6.144464E+00  6.144448E+00  6.144439E+00  6.144433E+00  6.144429E+00  6.144426E+00  6.144423E+00  6.144422E+00  6.144420E+00
 6.144496E+00  6.144464E+00  6.144448E+00  6.144439E+00  6.144433E+00  6.144429E+00  6.144426E+00  6.144423E+00  6.144422E+00  6.144420E+00
 6.144496E+00  6.144464E+00  6.144448E+00  6.144439E+00  6.144433E+00  6.144429E+00  6.144426E+00  6.144423E+00  6.144422E+00  6.144420E+00
 6.144505E+00  6.144464E+00  6.144448E+00  6.144439E+00  6.144433E+00  6.144429E+00  6.144426E+00  6.144423E+00  6.144422E+00  6.144420E+00
 6.144505E+00  6.144464E+00  6.144448E+00  6.144439E+00  6.144433E+00  6.144429E+00  6.144426E+00  6.144423E+00  6.144422E+00  6.144420E+00
 6.144505E+00  6.144464E+00  6.144448E+00  6.144439E+00  6.144433E+00  6.144429E+00  6.144426E+00  6.144423E+00  6.144422E+00  6.144420E+00
 6.144505E+00  6.144464E+00  6.144448E+00  6.144439E+00  6.144433E+00  6.144429E+00  6.144426E+00  6.144423E+00  6.144422E+00  6.144420E+00
 6.144505E+00  6.144464E+00  6.144448E+00  6.144439E+00  6.144433E+00  6.144429E+00  6.144426E+00  6.144423E+00  6.144422E+00  6.144420E+00
 6.144505E+00  6.144464E+00  6.144448E+00  6.144439E+00  6.144433E+00  6.144429E+00  6.144426E+00  6.144423E+00  6.144422E+00  6.144420E+00
 6.144505E+00  6.144464E+00  6.144448E+00  6.144439E+00  6.144433E+00  6.144429E+00  6.144426E+00  6.144423E+00  6.144422E+00  6.144420E+00
 6.144505E+00  6.144464E+00  6.144449E+00  6.144439E+00  6.144433E+00  6.144429E+00  6.144426E+00  6.144423E+00  6.144422E+00  6.144420E+00
 6.144497E+00  6.144464E+00  6.144449E+00  6.144439E+00  6.144433E+00  6.144429E+00  6.144426E+00  6.144423E+00  6.144422E+00  6.144420E+00
 6.144497E+00  6.144464E+00  6.144449E+00  6.144439E+00  6.144433E+00  6.144429E+00  6.144426E+00  6.144423E+00  6.144422E+00  6.144420E+00
 6.144497E+00  6.144464E+00  6.144449E+00  6.144439E+00  6.144433E+00  6.144429E+00  6.144426E+00  6.144423E+00  6.144422E+00  6.144420E+00
 6.144497E+00  6.144464E+00  6.144449E+00  6.144439E+00  6.144433E+00  6.144429E+00  6.144426E+00  6.144423E+00  6.144422E+00  6.144420E+00
 6.144497E+00  6.144464E+00  6.144449E+00  6.144439E+00  6.144433E+00  6.144429E+00  6.144426E+00  6.144423E+00  6.144422E+00  6.144420E+00
 6.144497E+00  6.144464E+00  6.144449E+00  6.144439E+00  6.144433E+00  6.144429E+00  6.144426E+00  6.144423E+00  6.144422E+00  6.144420E+00


SCALARS Total_H+             float 1
LOOKUP_TABLE default
-3.035522E-03 -3.036270E-03 -3.036628E-03 -3.036845E-03 -3.036990E-03 -3.037090E-03 -3.037161E-03 -3.037214E-03 -3.037254E-03 -3.037287E-03
-3.035522E-03 -3.036270E-03 -3.036627E-03 -3.036845E-03 -3.036989E-03 -3.037089E-03 -3.037161E-03 -3.037213E-03 -3.037254E-03 -3.037286E-03
-3.035522E-03 -3.036269E-03 -3.036626E-03 -3.036844E-03 -3.036989E-03 -3.037089E-03 -3.037160E-03 -3.037213E-03 -3.037253E-03 -3.037285E-03
-3.035522E-03 -3.036268E-03 -3.036626E-03 -3.036843E-03 -3.036988E-03 -3.037088E-03 -3.037159E-03 -3.037212E-03 -3.037252E-03 -3.037285E-03
-3.035521E-03 -3.036267E-03 -3.036625E-03 -3.036843E-03 -3.036987E-03 -3.037087E-03 -3.037159E-03 -3.037211E-03 -3.037252E-03 -3.037284E-03
-3.035521E-03 -3.036267E-03 -3.036624E-03 -3.036842E-03 -3.036987E-03 -3.037087E-03 -3.037158E-03 -3.037211E-03 -3.037251E-03 -3.037284E-03
-3.035556E-03 -3.036266E-03 -3.036623E-03 -3.036841E-03 -3.036986E-03 -3.037086E-03 -3.037158E-03 -3.037210E-03 -3.037250E-03 -3.037283E-03
-3.035555E-03 -3.036265E-03 -3.036623E-03 -3.036841E-03 -3.036985E-03 -3.037085E-03 -3.037157E-03 -3.037209E-03 -3.037250E-03 -3.037282E-03
-3.035554E-03 -3.036264E-03 -3.036622E-03 -3.036840E-03 -3.036985E-03 -3.037085E-03 -3.037156E-03 -3.037209E-03 -3.037249E-03 -3.037282E-03
-3.035553E-03 -3.036263E-03 -3.036621E-03 -3.036839E-03 -3.036984E-03 -3.037084E-03 -3.037156E-03 -3.037208E-03 -3.037249E-03 -3.037281E-03
-3.035552E-03 -3.036263E-03 -3.036621E-03 -3.036838E-03 -3.036983E-03 -3.037083E-03 -3.037155E-03 -3.037208E-03 -3.037248E-03 -3.037280E-03
-3.035551E-03 -3.036262E-03 -3.036620E-03 -3.036838E-03 -3.036983E-03 -3.037083E-03 -3.037154E-03 -3.037207E-03 -3.037247E-03 -3.037280E-03
-3.035550E-03 -3.036261E-03 -3.036619E-03 -3.036837E-03 -3.036982E-03 -3.037082E-03 -3.037154E-03 -3.037206E-03 -3.037247E-03 -3.037279E-03
-3.035548E-03 -3.036260E-03 -3.036618E-03 -3.036836E-03 -3.036981E-03 -3.037081E-03 -3.037153E-03 -3.037206E-03 -3.037246E-03 -3.037278E-03
-3.035507E-03 -3.036260E-03 -3.036618E-03 -3.036836E-03 -3.036980E-03 -3.037081E-03 -3.037152E-03 -3.037205E-03 -3.037245E-03 -3.037278E-03
-3.035506E-03 -3.036259E-03 -3.036617E-03 -3.036835E-03 -3.036980E-03 -3.037080E-03 -3.037152E-03 -3.037204E-03 -3.037245E-03 -3.037277E-03
-3.035506E-03 -3.036258E-03 -3.036616E-03 -3.036834E-03 -3.036979E-03 -3.037079E-03 -3.037151E-03 -3.037204E-03 -3.037244E-03 -3.037277E-03
-3.035506E-03 -3.036257E-03 -3.036616E-03 -3.036834E-03 -3.036978E-03 -3.037079E-03 -3.037150E-03 -3.037203E-03 -3.037243E-03 -3.037276E-03
-3.035505E-03 -3.036257E-03 -3.036615E-03 -3.036833E-03 -3.036978E-03 -3.037078E-03 -3.037150E-03 -3.037202E-03 -3.037243E-03 -3.037275E-03
-3.035505E-03 -3.036256E-03 -3.036614E-03 -3.036832E-03 -3.036977E-03 -3.037077E-03 -3.037149E-03 -3.037202E-03 -3.037242E-03 -3.037275E-03


SCALARS Total_SiO2(aq)       float 1
LOOKUP_TABLE default
 1.039636E-02  1.039447E-02  1.039357E-02  1.039303E-02  1.039267E-02  1.039242E-02  1.039225E-02  1.039212E-02  1.039202E-02  1.039194E-02
 1.039636E-02  1.039447E-02  1.039357E-02  1.039303E-02  1.039267E-02  1.039242E-02  1.039225E-02  1.039212E-02  1.039202E-02  1.039194E-02
 1.039636E-02  1.039447E-02  1.039357E-02  1.039303E-02  1.039267E-02  1.039242E-02  1.039225E-02  1.039212E-02  1.039202E-02  1.039194E-02
 1.039636E-02  1.039447E-02  1.039357E-02  1.039303E-02  1.039267E-02  1.039242E-02  1.039225E-02  1.039212E-02  1.039202E-02  1.039194E-02
 1.039636E-02  1.039447E-02  1.039357E-02  1.039303E-02  1.039267E-02  1.039242E-02  1.039225E-02  1.039212E-02  1.039202E-02  1.039194E-02
 1.039635E-02  1.039447E-02  1.039357E-02  1.039303E-02  1.039267E-02  1.039242E-02  1.039225E-02  1.039212E-02  1.039202E-02  1.039194E-02
 1.039657E-02  1.039447E-02  1.039357E-02  1.039303E-02  1.039267E-02  1.039242E-02  1.039225E-02  1.039212E-02  1.039202E-02  1.039194E-02
 1.039657E-02  1.039447E-02  1.039357E-02  1.039303E-02  1.039267E-02  1.039242E-02  1.039225E-02  1.039212E-02  1.039202E-02  1.039194E-02
 1.039657E-02  1.039447E-02  1.039357E-02  1.039303E-02  1.039267E-02  1.039242E-02  1.039225E-02  1.039212E-02  1.039202E-02  1.039194E-02
 1.039657E-02  1.039447E-02  1.039357E-02  1.039303E-02  1.039267E-02  1.039242E-02  1.039225E-02  1.039212E-02  1.039202E-02  1.039194E-02
 1.039657E-02  1.039447E-02  1.039357E-02  1.039303E-02  1.039267E-02  1.039242E-02  1.039225E-02  1.039212E-02  1.039202E-02  1.039194E-02
 1.039658E-02  1.039447E-02  1.039357E-02  1.039303E-02  1.039267E-02  1.039242E-02  1.039225E-02  1.039212E-02  1.039202E-02  1.039194E-02
 1.039658E-02  1.039447E-02  1.039357E-02  1.039303E-02  1.039267E-02  1.039242E-02  1.039225E-02  1.039212E-02  1.039202E-02  1.039194E-02
 1.039658E-02  1.039447E-02  1.039357E-02  1.039303E-02  1.039267E-02  1.039242E-02  1.039225E-02  1.039212E-02  1.039202E-02  1.039194E-02
 1.039638E-02  1.039447E-02  1.039357E-02  1.039303E-02  1.039267E-02  1.039242E-02  1.039225E-02  1.039212E-02  1.039202E-02  1.039194E-02
 1.039638E-02  1.039447E-02  1.039357E-02  1.039303E-02  1.039267E-02  1.039243E-02  1.039225E-02  1.039212E-02  1.039202E-02  1.039194E-02
 1.039638E-02  1.039447E-02  1.039357E-02  1.039303E-02  1.039267E-02  1.039243E-02  1.039225E-02  1.039212E-02  1.039202E-02  1.039194E-02
 1.039638E-02  1.039447E-02  1.039357E-02  1.039303E-02  1.039267E-02  1.039243E-02  1.039225E-02  1.039212E-02  1.039202E-02  1.039194E-02
 1.039637E-02  1.039447E-02  1.039357E-02  1.039303E-02  1.039267E-02  1.039243E-02  1.039225E-02  1.039212E-02  1.039202E-02  1.039194E-02