# vtk DataFile Version 2.0
PFLOTRAN output
ASCII
DATASET UNSTRUCTURED_GRID
POINTS          462 float
 0.000000E+00  0.000000E+00  0.000000E+00
 2.000000E+03  0.000000E+00  0.000000E+00
 4.000000E+03  0.000000E+00  0.000000E+00
 6.000000E+03  0.000000E+00  0.000000E+00
 8.000000E+03  0.000000E+00  0.000000E+00
 1.000000E+04  0.000000E+00  0.000000E+00
 1.200000E+04  0.000000E+00  0.000000E+00
 1.400000E+04  0.000000E+00  0.000000E+00
 1.600000E+04  0.000000E+00  0.000000E+00
 1.800000E+04  0.000000E+00  0.000000E+00
 2.000000E+04  0.000000E+00  0.000000E+00
 0.000000E+00  1.000000E+00  0.000000E+00
 2.000000E+03  1.000000E+00  0.000000E+00
 4.000000E+03  1.000000E+00  0.000000E+00
 6.000000E+03  1.000000E+00  0.000000E+00
 8.000000E+03  1.000000E+00  0.000000E+00
 1.000000E+04  1.000000E+00  0.000000E+00
 1.200000E+04  1.000000E+00  0.000000E+00
 1.400000E+04  1.000000E+00  0.000000E+00
 1.600000E+04  1.000000E+00  0.000000E+00
 1.800000E+04  1.000000E+00  0.000000E+00
 2.000000E+04  1.000000E+00  0.000000E+00
 0.000000E+00  0.000000E+00  5.000000E+00
 2.000000E+03  0.000000E+00  5.000000E+00
 4.000000E+03  0.000000E+00  5.000000E+00
 6.000000E+03  0.000000E+00  5.000000E+00
 8.000000E+03  0.000000E+00  5.000000E+00
 1.000000E+04  0.000000E+00  5.000000E+00
 1.200000E+04  0.000000E+00  5.000000E+00
 1.400000E+04  0.000000E+00  5.000000E+00
 1.600000E+04  0.000000E+00  5.000000E+00
 1.800000E+04  0.000000E+00  5.000000E+00
 2.000000E+04  0.000000E+00  5.000000E+00
 0.000000E+00  1.000000E+00  5.000000E+00
 2.000000E+03  1.000000E+00  5.000000E+00
 4.000000E+03  1.000000E+00  5.000000E+00
 6.000000E+03  1.000000E+00  5.000000E+00
 8.000000E+03  1.000000E+00  5.000000E+00
 1.000000E+04  1.000000E+00  5.000000E+00
 1.200000E+04  1.000000E+00  5.000000E+00
 1.400000E+04  1.000000E+00  5.000000E+00
 1.600000E+04  1.000000E+00  5.000000E+00
 1.800000E+04  1.000000E+00  5.000000E+00
 2.000000E+04  1.000000E+00  5.000000E+00
 0.000000E+00  0.000000E+00  1.000000E+01
 2.000000E+03  0.000000E+00  1.000000E+01
 4.000000E+03  0.000000E+00  1.000000E+01
 6.000000E+03  0.000000E+00  1.000000E+01
 8.000000E+03  0.000000E+00  1.000000E+01
 1.000000E+04  0.000000E+00  1.000000E+01
 1.200000E+04  0.000000E+00  1.000000E+01
 1.400000E+04  0.000000E+00  1.000000E+01
 1.600000E+04  0.000000E+00  1.000000E+01
 1.800000E+04  0.000000E+00  1.000000E+01
 2.000000E+04  0.000000E+00  1.000000E+01
 0.000000E+00  1.000000E+00  1.000000E+01
 2.000000E+03  1.000000E+00  1.000000E+01
 4.000000E+03  1.000000E+00  1.000000E+01
 6.000000E+03  1.000000E+00  1.000000E+01
 8.000000E+03  1.000000E+00  1.000000E+01
 1.000000E+04  1.000000E+00  1.000000E+01
 1.200000E+04  1.000000E+00  1.000000E+01
 1.400000E+04  1.000000E+00  1.000000E+01
 1.600000E+04  1.000000E+00  1.000000E+01
 1.800000E+04  1.000000E+00  1.000000E+01
 2.000000E+04  1.000000E+00  1.000000E+01
 0.000000E+00  0.000000E+00  1.500000E+01
 2.000000E+03  0.000000E+00  1.500000E+01
 4.000000E+03  0.000000E+00  1.500000E+01
 6.000000E+03  0.000000E+00  1.500000E+01
 8.000000E+03  0.000000E+00  1.500000E+01
 1.000000E+04  0.000000E+00  1.500000E+01
 1.200000E+04  0.000000E+00  1.500000E+01
 1.400000E+04  0.000000E+00  1.500000E+01
 1.600000E+04  0.000000E+00  1.500000E+01
 1.800000E+04  0.000000E+00  1.500000E+01
 2.000000E+04  0.000000E+00  1.500000E+01
 0.000000E+00  1.000000E+00  1.500000E+01
 2.000000E+03  1.000000E+00  1.500000E+01
 4.000000E+03  1.000000E+00  1.500000E+01
 6.000000E+03  1.000000E+00  1.500000E+01
 8.000000E+03  1.000000E+00  1.500000E+01
 1.000000E+04  1.000000E+00  1.500000E+01
 1.200000E+04  1.000000E+00  1.500000E+01
 1.400000E+04  1.000000E+00  1.500000E+01
 1.600000E+04  1.000000E+00  1.500000E+01
 1.800000E+04  1.000000E+00  1.500000E+01
 2.000000E+04  1.000000E+00  1.500000E+01
 0.000000E+00  0.000000E+00  2.000000E+01
 2.000000E+03  0.000000E+00  2.000000E+01
 4.000000E+03  0.000000E+00  2.000000E+01
 6.000000E+03  0.000000E+00  2.000000E+01
 8.000000E+03  0.000000E+00  2.000000E+01
 1.000000E+04  0.000000E+00  2.000000E+01
 1.200000E+04  0.000000E+00  2.000000E+01
 1.400000E+04  0.000000E+00  2.000000E+01
 1.600000E+04  0.000000E+00  2.000000E+01
 1.800000E+04  0.000000E+00  2.000000E+01
 2.000000E+04  0.000000E+00  2.000000E+01
 0.000000E+00  1.000000E+00  2.000000E+01
 2.000000E+03  1.000000E+00  2.000000E+01
 4.000000E+03  1.000000E+00  2.000000E+01
 6.000000E+03  1.000000E+00  2.000000E+01
 8.000000E+03  1.000000E+00  2.000000E+01
 1.000000E+04  1.000000E+00  2.000000E+01
 1.200000E+04  1.000000E+00  2.000000E+01
 1.400000E+04  1.000000E+00  2.000000E+01
 1.600000E+04  1.000000E+00  2.000000E+01
 1.800000E+04  1.000000E+00  2.000000E+01
 2.000000E+04  1.000000E+00  2.000000E+01
 0.000000E+00  0.000000E+00  2.500000E+01
 2.000000E+03  0.000000E+00  2.500000E+01
 4.000000E+03  0.000000E+00  2.500000E+01
 6.000000E+03  0.000000E+00  2.500000E+01
 8.000000E+03  0.000000E+00  2.500000E+01
 1.000000E+04  0.000000E+00  2.500000E+01
 1.200000E+04  0.000000E+00  2.500000E+01
 1.400000E+04  0.000000E+00  2.500000E+01
 1.600000E+04  0.000000E+00  2.500000E+01
 1.800000E+04  0.000000E+00  2.500000E+01
 2.000000E+04  0.000000E+00  2.500000E+01
 0.000000E+00  1.000000E+00  2.500000E+01
 2.000000E+03  1.000000E+00  2.500000E+01
 4.000000E+03  1.000000E+00  2.500000E+01
 6.000000E+03  1.000000E+00  2.500000E+01
 8.000000E+03  1.000000E+00  2.500000E+01
 1.000000E+04  1.000000E+00  2.500000E+01
 1.200000E+04  1.000000E+00  2.500000E+01
 1.400000E+04  1.000000E+00  2.500000E+01
 1.600000E+04  1.000000E+00  2.500000E+01
 1.800000E+04  1.000000E+00  2.500000E+01
 2.000000E+04  1.000000E+00  2.500000E+01
 0.000000E+00  0.000000E+00  3.000000E+01
 2.000000E+03  0.000000E+00  3.000000E+01
 4.000000E+03  0.000000E+00  3.000000E+01
 6.000000E+03  0.000000E+00  3.000000E+01
 8.000000E+03  0.000000E+00  3.000000E+01
 1.000000E+04  0.000000E+00  3.000000E+01
 1.200000E+04  0.000000E+00  3.000000E+01
 1.400000E+04  0.000000E+00  3.000000E+01
 1.600000E+04  0.000000E+00  3.000000E+01
 1.800000E+04  0.000000E+00  3.000000E+01
 2.000000E+04  0.000000E+00  3.000000E+01
 0.000000E+00  1.000000E+00  3.000000E+01
 2.000000E+03  1.000000E+00  3.000000E+01
 4.000000E+03  1.000000E+00  3.000000E+01
 6.000000E+03  1.000000E+00  3.000000E+01
 8.000000E+03  1.000000E+00  3.000000E+01
 1.000000E+04  1.000000E+00  3.000000E+01
 1.200000E+04  1.000000E+00  3.000000E+01
 1.400000E+04  1.000000E+00  3.000000E+01
 1.600000E+04  1.000000E+00  3.000000E+01
 1.800000E+04  1.000000E+00  3.000000E+01
 2.000000E+04  1.000000E+00  3.000000E+01
 0.000000E+00  0.000000E+00  3.500000E+01
 2.000000E+03  0.000000E+00  3.500000E+01
 4.000000E+03  0.000000E+00  3.500000E+01
 6.000000E+03  0.000000E+00  3.500000E+01
 8.000000E+03  0.000000E+00  3.500000E+01
 1.000000E+04  0.000000E+00  3.500000E+01
 1.200000E+04  0.000000E+00  3.500000E+01
 1.400000E+04  0.000000E+00  3.500000E+01
 1.600000E+04  0.000000E+00  3.500000E+01
 1.800000E+04  0.000000E+00  3.500000E+01
 2.000000E+04  0.000000E+00  3.500000E+01
 0.000000E+00  1.000000E+00  3.500000E+01
 2.000000E+03  1.000000E+00  3.500000E+01
 4.000000E+03  1.000000E+00  3.500000E+01
 6.000000E+03  1.000000E+00  3.500000E+01
 8.000000E+03  1.000000E+00  3.500000E+01
 1.000000E+04  1.000000E+00  3.500000E+01
 1.200000E+04  1.000000E+00  3.500000E+01
 1.400000E+04  1.000000E+00  3.500000E+01
 1.600000E+04  1.000000E+00  3.500000E+01
 1.800000E+04  1.000000E+00  3.500000E+01
 2.000000E+04  1.000000E+00  3.500000E+01
 0.000000E+00  0.000000E+00  4.000000E+01
 2.000000E+03  0.000000E+00  4.000000E+01
 4.000000E+03  0.000000E+00  4.000000E+01
 6.000000E+03  0.000000E+00  4.000000E+01
 8.000000E+03  0.000000E+00  4.000000E+01
 1.000000E+04  0.000000E+00  4.000000E+01
 1.200000E+04  0.000000E+00  4.000000E+01
 1.400000E+04  0.000000E+00  4.000000E+01
 1.600000E+04  0.000000E+00  4.000000E+01
 1.800000E+04  0.000000E+00  4.000000E+01
 2.000000E+04  0.000000E+00  4.000000E+01
 0.000000E+00  1.000000E+00  4.000000E+01
 2.000000E+03  1.000000E+00  4.000000E+01
 4.000000E+03  1.000000E+00  4.000000E+01
 6.000000E+03  1.000000E+00  4.000000E+01
 8.000000E+03  1.000000E+00  4.000000E+01
 1.000000E+04  1.000000E+00  4.000000E+01
 1.200000E+04  1.000000E+00  4.000000E+01
 1.400000E+04  1.000000E+00  4.000000E+01
 1.600000E+04  1.000000E+00  4.000000E+01
 1.800000E+04  1.000000E+00  4.000000E+01
 2.000000E+04  1.000000E+00  4.000000E+01
 0.000000E+00  0.000000E+00  4.500000E+01
 2.000000E+03  0.000000E+00  4.500000E+01
 4.000000E+03  0.000000E+00  4.500000E+01
 6.000000E+03  0.000000E+00  4.500000E+01
 8.000000E+03  0.000000E+00  4.500000E+01
 1.000000E+04  0.000000E+00  4.500000E+01
 1.200000E+04  0.000000E+00  4.500000E+01
 1.400000E+04  0.000000E+00  4.500000E+01
 1.600000E+04  0.000000E+00  4.500000E+01
 1.800000E+04  0.000000E+00  4.500000E+01
 2.000000E+04  0.000000E+00  4.500000E+01
 0.000000E+00  1.000000E+00  4.500000E+01
 2.000000E+03  1.000000E+00  4.500000E+01
 4.000000E+03  1.000000E+00  4.500000E+01
 6.000000E+03  1.000000E+00  4.500000E+01
 8.000000E+03  1.000000E+00  4.500000E+01
 1.000000E+04  1.000000E+00  4.500000E+01
 1.200000E+04  1.000000E+00  4.500000E+01
 1.400000E+04  1.000000E+00  4.500000E+01
 1.600000E+04  1.000000E+00  4.500000E+01
 1.800000E+04  1.000000E+00  4.500000E+01
 2.000000E+04  1.000000E+00  4.500000E+01
 0.000000E+00  0.000000E+00  5.000000E+01
 2.000000E+03  0.000000E+00  5.000000E+01
 4.000000E+03  0.000000E+00  5.000000E+01
 6.000000E+03  0.000000E+00  5.000000E+01
 8.000000E+03  0.000000E+00  5.000000E+01
 1.000000E+04  0.000000E+00  5.000000E+01
 1.200000E+04  0.000000E+00  5.000000E+01
 1.400000E+04  0.000000E+00  5.000000E+01
 1.600000E+04  0.000000E+00  5.000000E+01
 1.800000E+04  0.000000E+00  5.000000E+01
 2.000000E+04  0.000000E+00  5.000000E+01
 0.000000E+00  1.000000E+00  5.000000E+01
 2.000000E+03  1.000000E+00  5.000000E+01
 4.000000E+03  1.000000E+00  5.000000E+01
 6.000000E+03  1.000000E+00  5.000000E+01
[...]
CELL_DATA      200
SCALARS Porosity             float 1
LOOKUP_TABLE default
 4.377100E-01  4.377100E-01  4.377100E-01  4.377100E-01  4.377100E-01  4.377099E-01  4.377099E-01  4.377099E-01  4.377099E-01  4.377099E-01
 4.377100E-01  4.377100E-01  4.377100E-01  4.377100E-01  4.377100E-01  4.377099E-01  4.377099E-01  4.377099E-01  4.377099E-01  4.377099E-01
 4.377100E-01  4.377100E-01  4.377100E-01  4.377100E-01  4.377100E-01  4.377100E-01  4.377099E-01  4.377099E-01  4.377099E-01  4.377099E-01
 4.377100E-01  4.377100E-01  4.377100E-01  4.377100E-01  4.377100E-01  4.377100E-01  4.377099E-01  4.377099E-01  4.377099E-01  4.377099E-01
 4.377100E-01  4.377100E-01  4.377100E-01  4.377100E-01  4.377100E-01  4.377100E-01  4.377100E-01  4.377099E-01  4.377099E-01  4.377099E-01
 4.377100E-01  4.377100E-01  4.377100E-01  4.377100E-01  4.377100E-01  4.377100E-01  4.377100E-01  4.377099E-01  4.377099E-01  4.377099E-01
 4.377098E-01  4.377100E-01  4.377100E-01  4.377100E-01  4.377100E-01  4.377100E-01  4.377100E-01  4.377100E-01  4.377099E-01  4.377099E-01
 4.377098E-01  4.377100E-01  4.377100E-01  4.377100E-01  4.377100E-01  4.377100E-01  4.377100E-01  4.377100E-01  4.377100E-01  4.377099E-01
 4.377098E-01  4.377100E-01  4.377100E-01  4.377100E-01  4.377100E-01  4.377100E-01  4.377100E-01  4.377100E-01  4.377100E-01  4.377100E-01
 4.377098E-01  4.377100E-01  4.377100E-01  4.377100E-01  4.377100E-01  4.377100E-01  4.377100E-01  4.377100E-01  4.377100E-01  4.377100E-01
 4.377098E-01  4.377100E-01  4.377100E-01  4.377100E-01  4.377100E-01  4.377100E-01  4.377100E-01  4.377100E-01  4.377100E-01  4.377100E-01
 4.377098E-01  4.377100E-01  4.377100E-01  4.377100E-01  4.377100E-01  4.377100E-01  4.377100E-01  4.377100E-01  4.377100E-01  4.377100E-01
 4.377098E-01  4.377100E-01  4.377100E-01  4.377100E-01  4.377100E-01  4.377100E-01  4.377100E-01  4.377100E-01  4.377100E-01  4.377100E-01
 4.377098E-01  4.377100E-01  4.377100E-01  4.377100E-01  4.377100E-01  4.377100E-01  4.377100E-01  4.377100E-01  4.377100E-01  4.377100E-01
 4.377100E-01  4.377100E-01  4.377100E-01  4.377100E-01  4.377100E-01  4.377100E-01  4.377100E-01  4.377100E-01  4.377100E-01  4.377100E-01
 4.377100E-01  4.377100E-01  4.377100E-01  4.377100E-01  4.377100E-01  4.377100E-01  4.377100E-01  4.377100E-01  4.377100E-01  4.377100E-01
 4.377100E-01  4.377100E-01  4.377100E-01  4.377100E-01  4.377100E-01  4.377100E-01  4.377100E-01  4.377100E-01  4.377100E-01  4.377100E-01
 4.377100E-01  4.377100E-01  4.377100E-01  4.377100E-01  4.377100E-01  4.377100E-01  4.377100E-01  4.377100E-01  4.377100E-01  4.377100E-01
 4.377100E-01  4.377100E-01  4.377100E-01  4.377100E-01  4.377100E-01  4.377100E-01  4.377100E-01  4.377100E-01  4.377100E-01  4.377100E-01
 4.377100E-01  4.377100E-01  4.377100E-01  4.377100E-01  4.377100E-01  4.377100E-01  4.377100E-01  4.377100E-01  4.377100E-01  4.377100E-01


SCALARS Permeability         float 1
LOOKUP_TABLE default
 8.829804E-13  8.829804E-13  8.829803E-13  8.829803E-13  8.829803E-13  8.829803E-13  8.829803E-13  8.829803E-13  8.829803E-13  8.829803E-13
 8.829804E-13  8.829804E-13  8.829803E-13  8.829803E-13  8.829803E-13  8.829803E-13  8.829803E-13  8.829803E-13  8.829803E-13  8.829803E-13
 8.829804E-13  8.829804E-13  8.829803E-13  8.829803E-13  8.829803E-13  8.829803E-13  8.829803E-13  8.829803E-13  8.829803E-13  8.829803E-13
 8.829804E-13  8.829804E-13  8.829803E-13  8.829803E-13  8.829803E-13  8.829803E-13  8.829803E-13  8.829803E-13  8.829803E-13  8.829803E-13
 8.829804E-13  8.829804E-13  8.829803E-13  8.829803E-13  8.829803E-13  8.829803E-13  8.829803E-13  8.829803E-13  8.829803E-13  8.829803E-13
 8.829804E-13  8.829804E-13  8.829803E-13  8.829803E-13  8.829803E-13  8.829803E-13  8.829803E-13  8.829803E-13  8.829803E-13  8.829803E-13
 8.829796E-13  8.829804E-13  8.829803E-13  8.829803E-13  8.829803E-13  8.829803E-13  8.829803E-13  8.829803E-13  8.829803E-13  8.829803E-13
 8.829796E-13  8.829804E-13  8.829803E-13  8.829803E-13  8.829803E-13  8.829803E-13  8.829803E-13  8.829803E-13  8.829803E-13  8.829803E-13
 8.829796E-13  8.829804E-13  8.829803E-13  8.829803E-13  8.829803E-13  8.829803E-13  8.829803E-13  8.829803E-13  8.829803E-13  8.829803E-13
 8.829796E-13  8.829804E-13  8.829803E-13  8.829803E-13  8.829803E-13  8.829803E-13  8.829803E-13  8.829803E-13  8.829803E-13  8.829803E-13
 8.829796E-13  8.829804E-13  8.829803E-13  8.829803E-13  8.829803E-13  8.829803E-13  8.829803E-13  8.829803E-13  8.829803E-13  8.829803E-13
 8.829796E-13  8.829804E-13  8.829804E-13  8.829803E-13  8.829803E-13  8.829803E-13  8.829803E-13  8.829803E-13  8.829803E-13  8.829803E-13
 8.829796E-13  8.829804E-13  8.829804E-13  8.829803E-13  8.829803E-13  8.829803E-13  8.829803E-13  8.829803E-13  8.829803E-13  8.829803E-13
 8.829796E-13  8.829804E-13  8.829804E-13  8.829803E-13  8.829803E-13  8.829803E-13  8.829803E-13  8.829803E-13  8.829803E-13  8.829803E-13
 8.829805E-13  8.829804E-13  8.829804E-13  8.829803E-13  8.829803E-13  8.829803E-13  8.829803E-13  8.829803E-13  8.829803E-13  8.829803E-13
 8.829805E-13  8.829804E-13  8.829804E-13  8.829803E-13  8.829803E-13  8.829803E-13  8.829803E-13  8.829803E-13  8.829803E-13  8.829803E-13
 8.829805E-13  8.829804E-13  8.829804E-13  8.829803E-13  8.829803E-13  8.829803E-13  8.829803E-13  8.829803E-13  8.829803E-13  8.829803E-13
 8.829805E-13  8.829804E-13  8.829804E-13  8.829803E-13  8.829803E-13  8.829803E-13  8.829803E-13  8.829803E-13  8.829803E-13  8.829803E-13
 8.829805E-13  8.829804E-13  8.829804E-13  8.829804E-13  8.829803E-13  8.829803E-13  8.829803E-13  8.829803E-13  8.829803E-13  8.829803E-13
 8.829805E-13  8.829804E-13  8.829804E-13  8.829804E-13  8.829803E-13  8.829803E-13  8.829803E-13  8.829803E-13  8.829803E-13  8.829803E-13


SCALARS Liquid_Pressure      float 1
LOOKUP_TABLE default
 8.306037E+06  7.935601E+06  7.765352E+06  7.666169E+06  7.603693E+06  7.562603E+06  7.534312E+06  7.513592E+06  7.497271E+06  7.483524E+06
 8.260870E+06  7.890438E+06  7.720194E+06  7.621013E+06  7.558539E+06  7.517450E+06  7.489160E+06  7.468440E+06  7.452120E+06  7.438373E+06
 8.215709E+06  7.845277E+06  7.675037E+06  7.575859E+06  7.513386E+06  7.472298E+06  7.444009E+06  7.423289E+06  7.406970E+06  7.393223E+06
 8.170553E+06  7.800116E+06  7.629881E+06  7.530706E+06  7.468234E+06  7.427147E+06  7.398859E+06  7.378139E+06  7.361820E+06  7.348074E+06
 8.125404E+06  7.754958E+06  7.584726E+06  7.485553E+06  7.423084E+06  7.381998E+06  7.353710E+06  7.332991E+06  7.316673E+06  7.302927E+06
 8.080261E+06  7.709800E+06  7.539573E+06  7.440403E+06  7.377935E+06  7.336850E+06  7.308562E+06  7.287844E+06  7.271526E+06  7.257780E+06
 8.035124E+06  7.664644E+06  7.494421E+06  7.395253E+06  7.332787E+06  7.291703E+06  7.263416E+06  7.242699E+06  7.226381E+06  7.212636E+06
 7.989981E+06  7.619489E+06  7.449270E+06  7.350105E+06  7.287640E+06  7.246557E+06  7.218271E+06  7.197554E+06  7.181237E+06  7.167492E+06
 7.944832E+06  7.574335E+06  7.404121E+06  7.304958E+06  7.242495E+06  7.201413E+06  7.173127E+06  7.152411E+06  7.136094E+06  7.122349E+06
 7.899677E+06  7.529182E+06  7.358972E+06  7.259812E+06  7.197350E+06  7.156270E+06  7.127985E+06  7.107269E+06  7.090953E+06  7.077208E+06
 7.854517E+06  7.484031E+06  7.313825E+06  7.214668E+06  7.152207E+06  7.111128E+06  7.082844E+06  7.062128E+06  7.045812E+06  7.032068E+06
 7.809350E+06  7.438881E+06  7.268680E+06  7.169524E+06  7.107066E+06  7.065987E+06  7.037704E+06  7.016989E+06  7.000673E+06  6.986930E+06
 7.764178E+06  7.393732E+06  7.223535E+06  7.124382E+06  7.061925E+06  7.020848E+06  6.992565E+06  6.971851E+06  6.955536E+06  6.941792E+06
 7.718999E+06  7.348585E+06  7.178392E+06  7.079242E+06  7.016786E+06  6.975710E+06  6.947428E+06  6.926714E+06  6.910399E+06  6.896656E+06
 7.673815E+06  7.303438E+06  7.133250E+06  7.034102E+06  6.971648E+06  6.930573E+06  6.902292E+06  6.881578E+06  6.865264E+06  6.851521E+06
 7.628637E+06  7.258293E+06  7.088109E+06  6.988964E+06  6.926512E+06  6.885437E+06  6.857157E+06  6.836444E+06  6.820130E+06  6.806388E+06
 7.583465E+06  7.213149E+06  7.042970E+06  6.943827E+06  6.881376E+06  6.840303E+06  6.812023E+06  6.791311E+06  6.774997E+06  6.761256E+06
 7.538299E+06  7.168007E+06  6.997832E+06  6.898691E+06  6.836242E+06  6.795170E+06  6.766891E+06  6.746179E+06  6.729866E+06  6.716124E+06
 7.493139E+06  7.122866E+06  6.952695E+06  6.853557E+06  6.791109E+06  6.750038E+06  6.721760E+06  6.701049E+06  6.684736E+06  6.670995E+06
 7.447985E+06  7.077726E+06  6.907559E+06  6.808424E+06  6.745978E+06  6.704907E+06  6.676630E+06  6.655919E+06  6.639607E+06  6.625866E+06


SCALARS Temperature          float 1
LOOKUP_TABLE default
 1.500471E+02  1.500253E+02  1.500152E+02  1.500093E+02  1.500056E+02  1.500032E+02  1.500015E+02  1.500003E+02  1.499993E+02  1.499985E+02
 1.500471E+02  1.500253E+02  1.500152E+02  1.500093E+02  1.500056E+02  1.500032E+02  1.500015E+02  1.500003E+02  1.499993E+02  1.499985E+02
 1.500471E+02  1.500253E+02  1.500152E+02  1.500093E+02  1.500056E+02  1.500032E+02  1.500015E+02  1.500003E+02  1.499993E+02  1.499985E+02
 1.500471E+02  1.500253E+02  1.500152E+02  1.500093E+02  1.500056E+02  1.500032E+02  1.500015E+02  1.500003E+02  1.499993E+02  1.499985E+02
 1.500471E+02  1.500253E+02  1.500152E+02  1.500093E+02  1.500056E+02  1.500032E+02  1.500015E+02  1.500003E+02  1.499993E+02  1.499985E+02
 1.500471E+02  1.500253E+02  1.500152E+02  1.500093E+02  1.500056E+02  1.500032E+02  1.500015E+02  1.500003E+02  1.499993E+02  1.499985E+02
 1.500469E+02  1.500253E+02  1.500152E+02  1.500093E+02  1.500056E+02  1.500032E+02  1.500015E+02  1.500003E+02  1.499993E+02  1.499985E+02
 1.500470E+02  1.500253E+02  1.500152E+02  1.500093E+02  1.500056E+02  1.500032E+02  1.500015E+02  1.500003E+02  1.499993E+02  1.499985E+02
 1.500470E+02  1.500253E+02  1.500152E+02  1.500093E+02  1.500056E+02  1.500032E+02  1.500015E+02  1.500003E+02  1.499993E+02  1.499985E+02
 1.500470E+02  1.500253E+02  1.500152E+02  1.500093E+02  1.500056E+02  1.500032E+02  1.500015E+02  1.500003E+02  1.499993E+02  1.499985E+02
 1.500470E+02  1.500253E+02  1.500152E+02  1.500093E+02  1.500056E+02  1.500032E+02  1.500015E+02  1.500003E+02  1.499993E+02  1.499985E+02
 1.500470E+02  1.500253E+02  1.500152E+02  1.500093E+02  1.500056E+02  1.500032E+02  1.500015E+02  1.500003E+02  1.499993E+02  1.499985E+02
 1.500471E+02  1.500253E+02  1.500152E+02  1.500093E+02  1.500056E+02  1.500032E+02  1.500015E+02  1.500003E+02  1.499993E+02  1.499985E+02
 1.500471E+02  1.500253E+02  1.500152E+02  1.500093E+02  1.500056E+02  1.500032E+02  1.500015E+02  1.500003E+02  1.499993E+02  1.499985E+02
 1.500473E+02  1.500253E+02  1.500152E+02  1.500093E+02  1.500056E+02  1.500032E+02  1.500015E+02  1.500003E+02  1.499993E+02  1.499985E+02
 1.500473E+02  1.500253E+02  1.500152E+02  1.500093E+02  1.500056E+02  1.500032E+02  1.500015E+02  1.500003E+02  1.499993E+02  1.499985E+02
 1.500473E+02  1.500254E+02  1.500152E+02  1.500093E+02  1.500056E+02  1.500032E+02  1.500015E+02  1.500003E+02  1.499993E+02  1.499985E+02
 1.500473E+02  1.500254E+02  1.500152E+02  1.500093E+02  1.500056E+02  1.500032E+02  1.500015E+02  1.500003E+02  1.499993E+02  1.499985E+02
 1.500473E+02  1.500254E+02  1.500152E+02  1.500093E+02  1.500056E+02  1.500032E+02  1.500015E+02  1.500003E+02  1.499993E+02  1.499985E+02
 1.500473E+02  1.500254E+02  1.500152E+02  1.500093E+02  1.500056E+02  1.500032E+02  1.500015E+02  1.500003E+02  1.499993E+02  1.499985E+02


SCALARS pH                   float 1
LOOKUP_TABLE default
 6.144411E+00  6.144379E+00  6.144364E+00  6.144355E+00  6.144349E+00  6.144346E+00  6.144343E+00  6.144341E+00  6.144340E+00  6.144339E+00
 6.144411E+00  6.144379E+00  6.144364E+00  6.144355E+00  6.144349E+00  6.144346E+00  6.144343E+00  6.144342E+00  6.144340E+00  6.144339E+00
 6.144411E+00  6.144379E+00  6.144364E+00  6.144355E+00  6.144349E+00  6.144346E+00  6.144343E+00  6.144342E+00  6.144340E+00  6.144339E+00
 6.144411E+00  6.144379E+00  6.144364E+00  6.144355E+00  6.144349E+00  6.144346E+00  6.144343E+00  6.144342E+00  6.144340E+00  6.144339E+00
 6.144411E+00  6.144379E+00  6.144364E+00  6.144355E+00  6.144349E+00  6.144346E+00  6.144343E+00  6.144342E+00  6.144340E+00  6.144339E+00
 6.144411E+00  6.144379E+00  6.144364E+00  6.144355E+00  6.144349E+00  6.144346E+00  6.144343E+00  6.144342E+00  6.144340E+00  6.144339E+00
 6.144417E+00  6.144379E+00  6.144364E+00  6.144355E+00  6.144349E+00  6.144346E+00  6.144343E+00  6.144342E+00  6.144340E+00  6.144339E+00
 6.144417E+00  6.144379E+00  6.144364E+00  6.144355E+00  6.144350E+00  6.144346E+00  6.144343E+00  6.144342E+00  6.144340E+00  6.144339E+00
 6.144417E+00  6.144379E+00  6.144364E+00  6.144355E+00  6.144350E+00  6.144346E+00  6.144343E+00  6.144342E+00  6.144340E+00  6.144339E+00
 6.144417E+00  6.144379E+00  6.144364E+00  6.144355E+00  6.144350E+00  6.144346E+00  6.144343E+00  6.144342E+00  6.144340E+00  6.144339E+00
 6.144417E+00  6.144379E+00  6.144364E+00  6.144355E+00  6.144350E+00  6.144346E+00  6.144343E+00  6.144342E+00  6.144340E+00  6.144339E+00
 6.144417E+00  6.144379E+00  6.144364E+00  6.144355E+00  6.144350E+00  6.144346E+00  6.144343E+00  6.144342E+00  6.144340E+00  6.144339E+00
 6.144417E+00  6.144379E+00  6.144364E+00  6.144355E+00  6.144350E+00  6.144346E+00  6.144343E+00  6.144342E+00  6.144340E+00  6.144339E+00
 6.144417E+00  6.144379E+00  6.144364E+00  6.144355E+00  6.144350E+00  6.144346E+00  6.144343E+00  6.144342E+00  6.144340E+00  6.144339E+00
 6.144411E+00  6.144379E+00  6.144364E+00  6.144355E+00  6.144350E+00  6.144346E+00  6.144343E+00  6.144342E+00  6.144340E+00  6.144339E+00
 6.144411E+00  6.144379E+00  6.144364E+00  6.144355E+00  6.144350E+00  6.144346E+00  6.144343E+00  6.144342E+00  6.144340E+00  6.144339E+00
 6.144411E+00  6.144379E+00  6.144364E+00  6.144355E+00  6.144350E+00  6.144346E+00  6.144343E+00  6.144342E+00  6.144340E+00  6.144339E+00
 6.144411E+00  6.144379E+00  6.144364E+00  6.144355E+00  6.144350E+00  6.144346E+00  6.144343E+00  6.144342E+00  6.144340E+00  6.144339E+00
 6.144411E+00  6.144379E+00  6.144364E+00  6.144355E+00  6.144350E+00  6.144346E+00  6.144343E+00  6.144342E+00  6.144340E+00  6.144339E+00
 6.144411E+00  6.144379E+00  6.144364E+00  6.144355E+00  6.144350E+00  6.144346E+00  6.144343E+00  6.144342E+00  6.144340E+00  6.144339E+00


SCALARS Total_H+             float 1
LOOKUP_TABLE default
-3.041431E-03 -3.042183E-03 -3.042532E-03 -3.042737E-03 -3.042866E-03 -3.042952E-03 -3.043011E-03 -3.043053E-03 -3.043087E-03 -3.043114E-03
-3.041431E-03 -3.042182E-03 -3.042532E-03 -3.042736E-03 -3.042866E-03 -3.042951E-03 -3.043010E-03 -3.043053E-03 -3.043086E-03 -3.043114E-03
-3.041431E-03 -3.042182E-03 -3.042531E-03 -3.042736E-03 -3.042865E-03 -3.042951E-03 -3.043009E-03 -3.043052E-03 -3.043086E-03 -3.043113E-03
-3.041430E-03 -3.042181E-03 -3.042531E-03 -3.042735E-03 -3.042865E-03 -3.042950E-03 -3.043009E-03 -3.043052E-03 -3.043085E-03 -3.043113E-03
-3.041430E-03 -3.042180E-03 -3.042530E-03 -3.042735E-03 -3.042864E-03 -3.042950E-03 -3.043008E-03 -3.043051E-03 -3.043085E-03 -3.043112E-03
-3.041430E-03 -3.042180E-03 -3.042529E-03 -3.042734E-03 -3.042864E-03 -3.042949E-03 -3.043008E-03 -3.043051E-03 -3.043084E-03 -3.043112E-03
-3.041427E-03 -3.042179E-03 -3.042529E-03 -3.042734E-03 -3.042863E-03 -3.042949E-03 -3.043007E-03 -3.043050E-03 -3.043084E-03 -3.043111E-03
-3.041426E-03 -3.042178E-03 -3.042528E-03 -3.042733E-03 -3.042863E-03 -3.042948E-03 -3.043007E-03 -3.043050E-03 -3.043083E-03 -3.043111E-03
-3.041425E-03 -3.042178E-03 -3.042528E-03 -3.042732E-03 -3.042862E-03 -3.042947E-03 -3.043006E-03 -3.043049E-03 -3.043083E-03 -3.043110E-03
-3.041424E-03 -3.042177E-03 -3.042527E-03 -3.042732E-03 -3.042861E-03 -3.042947E-03 -3.043006E-03 -3.043049E-03 -3.043082E-03 -3.043110E-03
-3.041424E-03 -3.042176E-03 -3.042527E-03 -3.042731E-03 -3.042861E-03 -3.042946E-03 -3.043005E-03 -3.043048E-03 -3.043082E-03 -3.043109E-03
-3.041423E-03 -3.042176E-03 -3.042526E-03 -3.042731E-03 -3.042860E-03 -3.042946E-03 -3.043005E-03 -3.043048E-03 -3.043081E-03 -3.043109E-03
-3.041422E-03 -3.042175E-03 -3.042525E-03 -3.042730E-03 -3.042860E-03 -3.042945E-03 -3.043004E-03 -3.043047E-03 -3.043081E-03 -3.043108E-03
-3.041421E-03 -3.042175E-03 -3.042525E-03 -3.042730E-03 -3.042859E-03 -3.042945E-03 -3.043004E-03 -3.043047E-03 -3.043080E-03 -3.043108E-03
-3.041418E-03 -3.042174E-03 -3.042524E-03 -3.042729E-03 -3.042859E-03 -3.042944E-03 -3.043003E-03 -3.043046E-03 -3.043080E-03 -3.043107E-03
-3.041418E-03 -3.042173E-03 -3.042524E-03 -3.042729E-03 -3.042858E-03 -3.042944E-03 -3.043003E-03 -3.043046E-03 -3.043079E-03 -3.043107E-03
-3.041418E-03 -3.042173E-03 -3.042523E-03 -3.042728E-03 -3.042858E-03 -3.042943E-03 -3.043002E-03 -3.043045E-03 -3.043079E-03 -3.043106E-03
-3.041417E-03 -3.042172E-03 -3.042522E-03 -3.042727E-03 -3.042857E-03 -3.042943E-03 -3.043002E-03 -3.043045E-03 -3.043078E-03 -3.043106E-03
-3.041417E-03 -3.042171E-03 -3.042522E-03 -3.042727E-03 -3.042857E-03 -3.042942E-03 -3.043001E-03 -3.043044E-03 -3.043078E-03 -3.043105E-03
-3.041417E-03 -3.042171E-03 -3.042521E-03 -3.042726E-03 -3.042856E-03 -3.042942E-03 -3.043001E-03 -3.043044E-03 -3.043077E-03 -3.043105E-03


SCALARS Total_SiO2(aq)       float 1
LOOKUP_TABLE default
 1.039610E-02  1.039422E-02  1.039335E-02  1.039285E-02  1.039253E-02  1.039232E-02  1.039218E-02  1.039208E-02  1.039199E-02  1.039192E-02
 1.039610E-02  1.039422E-02  1.039335E-02  1.039285E-02  1.039253E-02  1.039232E-02  1.039218E-02  1.039208E-02  1.039199E-02  1.039192E-02
 1.039610E-02  1.039422E-02  1.039335E-02  1.039285E-02  1.039253E-02  1.039232E-02  1.039218E-02  1.039208E-02  1.039199E-02  1.039192E-02
 1.039610E-02  1.039422E-02  1.039335E-02  1.039285E-02  1.039253E-02  1.039232E-02  1.039218E-02  1.039208E-02  1.039199E-02  1.039192E-02
 1.039610E-02  1.039422E-02  1.039335E-02  1.039285E-02  1.039253E-02  1.039232E-02  1.039218E-02  1.039208E-02  1.039199E-02  1.039192E-02
 1.039609E-02  1.039422E-02  1.039335E-02  1.039285E-02  1.039253E-02  1.039233E-02  1.039218E-02  1.039208E-02  1.039199E-02  1.039192E-02
 1.039631E-02  1.039422E-02  1.039335E-02  1.039285E-02  1.039253E-02  1.039233E-02  1.039218E-02  1.039208E-02  1.039199E-02  1.039192E-02
 1.039631E-02  1.039422E-02  1.039335E-02  1.039285E-02  1.039253E-02  1.039233E-02  1.039218E-02  1.039208E-02  1.039199E-02  1.039192E-02
 1.039632E-02  1.039422E-02  1.039335E-02  1.039285E-02  1.039253E-02  1.039233E-02  1.039218E-02  1.039208E-02  1.039199E-02  1.039192E-02
 1.039632E-02  1.039422E-02  1.039335E-02  1.039285E-02  1.039253E-02  1.039233E-02  1.039218E-02  1.039208E-02  1.039199E-02  1.039192E-02
 1.039632E-02  1.039422E-02  1.039336E-02  1.039285E-02  1.039253E-02  1.039233E-02  1.039218E-02  1.039208E-02  1.039199E-02  1.039192E-02
 1.039632E-02  1.039422E-02  1.039336E-02  1.039285E-02  1.039253E-02  1.039233E-02  1.039218E-02  1.039208E-02  1.039199E-02  1.039192E-02
 1.039632E-02  1.039422E-02  1.039336E-02  1.039285E-02  1.039253E-02  1.039233E-02  1.039218E-02  1.039208E-02  1.039199E-02  1.039192E-02
 1.039632E-02  1.039422E-02  1.039336E-02  1.039285E-02  1.039253E-02  1.039233E-02  1.039218E-02  1.039208E-02  1.039199E-02  1.039192E-02
 1.039611E-02  1.039422E-02  1.039336E-02  1.039285E-02  1.039253E-02  1.039233E-02  1.039218E-02  1.039208E-02  1.039199E-02  1.039192E-02
 1.039611E-02  1.039423E-02  1.039336E-02  1.039285E-02  1.039253E-02  1.039233E-02  1.039218E-02  1.039208E-02  1.039199E-02  1.039192E-02
 1.039611E-02  1.039423E-02  1.039336E-02  1.039285E-02  1.039253E-02  1.039233E-02  1.039218E-02  1.039208E-02  1.039199E-02  1.039192E-02
 1.039611E-02  1.039423E-02  1.039336E-02  1.039285E-02  1.039253E-02  1.039233E-02  1.039218E-02  1.039208E-02  1.039199E-02  1.039192E-02
 1.039611E-02  1.039423E-02  1.039336E-02  1.039285E-02  1.039253E-02  1.039233E-02  1.039218E-02  1.039208E-02  1.039199E-02  1.039192E-02