# vtk DataFile Version 2.0
PFLOTRAN output
ASCII
DATASET UNSTRUCTURED_GRID
POINTS          462 float
 0.000000E+00  0.000000E+00  0.000000E+00
 2.000000E+03  0.000000E+00  0.000000E+00
 4.000000E+03  0.000000E+00  0.000000E+00
 6.000000E+03  0.000000E+00  0.000000E+00
 8.000000E+03  0.000000E+00  0.000000E+00
 1.000000E+04  0.000000E+00  0.000000E+00
 1.200000E+04  0.000000E+00  0.000000E+00
 1.400000E+04  0.000000E+00  0.000000E+00
 1.600000E+04  0.000000E+00  0.000000E+00
 1.800000E+04  0.000000E+00  0.000000E+00
 2.000000E+04  0.000000E+00  0.000000E+00
 0.000000E+00  1.000000E+00  0.000000E+00
 2.000000E+03  1.000000E+00  0.000000E+00
 4.000000E+03  1.000000E+00  0.000000E+00
 6.000000E+03  1.000000E+00  0.000000E+00
 8.000000E+03  1.000000E+00  0.000000E+00
 1.000000E+04  1.000000E+00  0.000000E+00
 1.200000E+04  1.000000E+00  0.000000E+00
 1.400000E+04  1.000000E+00  0.000000E+00
 1.600000E+04  1.000000E+00  0.000000E+00
 1.800000E+04  1.000000E+00  0.000000E+00
 2.000000E+04  1.000000E+00  0.000000E+00
 0.000000E+00  0.000000E+00  5.000000E+00
 2.000000E+03  0.000000E+00  5.000000E+00
 4.000000E+03  0.000000E+00  5.000000E+00
 6.000000E+03  0.000000E+00  5.000000E+00
 8.000000E+03  0.000000E+00  5.000000E+00
 1.000000E+04  0.000000E+00  5.000000E+00
 1.200000E+04  0.000000E+00  5.000000E+00
 1.400000E+04  0.000000E+00  5.000000E+00
 1.600000E+04  0.000000E+00  5.000000E+00
 1.800000E+04  0.000000E+00  5.000000E+00
 2.000000E+04  0.000000E+00  5.000000E+00
 0.000000E+00  1.000000E+00  5.000000E+00
 2.000000E+03  1.000000E+00  5.000000E+00
 4.000000E+03  1.000000E+00  5.000000E+00
 6.000000E+03  1.000000E+00  5.000000E+00
 8.000000E+03  1.000000E+00  5.000000E+00
 1.000000E+04  1.000000E+00  5.000000E+00
 1.200000E+04  1.000000E+00  5.000000E+00
 1.400000E+04  1.000000E+00  5.000000E+00
 1.600000E+04  1.000000E+00  5.000000E+00
 1.800000E+04  1.000000E+00  5.000000E+00
 2.000000E+04  1.000000E+00  5.000000E+00
 0.000000E+00  0.000000E+00  1.000000E+01
 2.000000E+03  0.000000E+00  1.000000E+01
 4.000000E+03  0.000000E+00  1.000000E+01
 6.000000E+03  0.000000E+00  1.000000E+01
 8.000000E+03  0.000000E+00  1.000000E+01
 1.000000E+04  0.000000E+00  1.000000E+01
 1.200000E+04  0.000000E+00  1.000000E+01
 1.400000E+04  0.000000E+00  1.000000E+01
 1.600000E+04  0.000000E+00  1.000000E+01
 1.800000E+04  0.000000E+00  1.000000E+01
 2.000000E+04  0.000000E+00  1.000000E+01
 0.000000E+00  1.000000E+00  1.000000E+01
 2.000000E+03  1.000000E+00  1.000000E+01
 4.000000E+03  1.000000E+00  1.000000E+01
 6.000000E+03  1.000000E+00  1.000000E+01
 8.000000E+03  1.000000E+00  1.000000E+01
 1.000000E+04  1.000000E+00  1.000000E+01
 1.200000E+04  1.000000E+00  1.000000E+01
 1.400000E+04  1.000000E+00  1.000000E+01
 1.600000E+04  1.000000E+00  1.000000E+01
 1.800000E+04  1.000000E+00  1.000000E+01
 2.000000E+04  1.000000E+00  1.000000E+01
 0.000000E+00  0.000000E+00  1.500000E+01
 2.000000E+03  0.000000E+00  1.500000E+01
 4.000000E+03  0.000000E+00  1.500000E+01
 6.000000E+03  0.000000E+00  1.500000E+01
 8.000000E+03  0.000000E+00  1.500000E+01
 1.000000E+04  0.000000E+00  1.500000E+01
 1.200000E+04  0.000000E+00  1.500000E+01
 1.400000E+04  0.000000E+00  1.500000E+01
 1.600000E+04  0.000000E+00  1.500000E+01
 1.800000E+04  0.000000E+00  1.500000E+01
 2.000000E+04  0.000000E+00  1.500000E+01
 0.000000E+00  1.000000E+00  1.500000E+01
 2.000000E+03  1.000000E+00  1.500000E+01
 4.000000E+03  1.000000E+00  1.500000E+01
 6.000000E+03  1.000000E+00  1.500000E+01
 8.000000E+03  1.000000E+00  1.500000E+01
 1.000000E+04  1.000000E+00  1.500000E+01
 1.200000E+04  1.000000E+00  1.500000E+01
 1.400000E+04  1.000000E+00  1.500000E+01
 1.600000E+04  1.000000E+00  1.500000E+01
 1.800000E+04  1.000000E+00  1.500000E+01
 2.000000E+04  1.000000E+00  1.500000E+01
 0.000000E+00  0.000000E+00  2.000000E+01
 2.000000E+03  0.000000E+00  2.000000E+01
 4.000000E+03  0.000000E+00  2.000000E+01
 6.000000E+03  0.000000E+00  2.000000E+01
 8.000000E+03  0.000000E+00  2.000000E+01
 1.000000E+04  0.000000E+00  2.000000E+01
 1.200000E+04  0.000000E+00  2.000000E+01
 1.400000E+04  0.000000E+00  2.000000E+01
 1.600000E+04  0.000000E+00  2.000000E+01
 1.800000E+04  0.000000E+00  2.000000E+01
 2.000000E+04  0.000000E+00  2.000000E+01
 0.000000E+00  1.000000E+00  2.000000E+01
 2.000000E+03  1.000000E+00  2.000000E+01
 4.000000E+03  1.000000E+00  2.000000E+01
 6.000000E+03  1.000000E+00  2.000000E+01
 8.000000E+03  1.000000E+00  2.000000E+01
 1.000000E+04  1.000000E+00  2.000000E+01
 1.200000E+04  1.000000E+00  2.000000E+01
 1.400000E+04  1.000000E+00  2.000000E+01
 1.600000E+04  1.000000E+00  2.000000E+01
 1.800000E+04  1.000000E+00  2.000000E+01
 2.000000E+04  1.000000E+00  2.000000E+01
 0.000000E+00  0.000000E+00  2.500000E+01
 2.000000E+03  0.000000E+00  2.500000E+01
 4.000000E+03  0.000000E+00  2.500000E+01
 6.000000E+03  0.000000E+00  2.500000E+01
 8.000000E+03  0.000000E+00  2.500000E+01
 1.000000E+04  0.000000E+00  2.500000E+01
 1.200000E+04  0.000000E+00  2.500000E+01
 1.400000E+04  0.000000E+00  2.500000E+01
 1.600000E+04  0.000000E+00  2.500000E+01
 1.800000E+04  0.000000E+00  2.500000E+01
 2.000000E+04  0.000000E+00  2.500000E+01
 0.000000E+00  1.000000E+00  2.500000E+01
 2.000000E+03  1.000000E+00  2.500000E+01
 4.000000E+03  1.000000E+00  2.500000E+01
 6.000000E+03  1.000000E+00  2.500000E+01
 8.000000E+03  1.000000E+00  2.500000E+01
 1.000000E+04  1.000000E+00  2.500000E+01
 1.200000E+04  1.000000E+00  2.500000E+01
 1.400000E+04  1.000000E+00  2.500000E+01
 1.600000E+04  1.000000E+00  2.500000E+01
 1.800000E+04  1.000000E+00  2.500000E+01
 2.000000E+04  1.000000E+00  2.500000E+01
 0.000000E+00  0.000000E+00  3.000000E+01
 2.000000E+03  0.000000E+00  3.000000E+01
 4.000000E+03  0.000000E+00  3.000000E+01
 6.000000E+03  0.000000E+00  3.000000E+01
 8.000000E+03  0.000000E+00  3.000000E+01
 1.000000E+04  0.000000E+00  3.000000E+01
 1.200000E+04  0.000000E+00  3.000000E+01
 1.400000E+04  0.000000E+00  3.000000E+01
 1.600000E+04  0.000000E+00  3.000000E+01
 1.800000E+04  0.000000E+00  3.000000E+01
 2.000000E+04  0.000000E+00  3.000000E+01
 0.000000E+00  1.000000E+00  3.000000E+01
 2.000000E+03  1.000000E+00  3.000000E+01
 4.000000E+03  1.000000E+00  3.000000E+01
 6.000000E+03  1.000000E+00  3.000000E+01
 8.000000E+03  1.000000E+00  3.000000E+01
 1.000000E+04  1.000000E+00  3.000000E+01
 1.200000E+04  1.000000E+00  3.000000E+01
 1.400000E+04  1.000000E+00  3.000000E+01
 1.600000E+04  1.000000E+00  3.000000E+01
 1.800000E+04  1.000000E+00  3.000000E+01
 2.000000E+04  1.000000E+00  3.000000E+01
 0.000000E+00  0.000000E+00  3.500000E+01
 2.000000E+03  0.000000E+00  3.500000E+01
 4.000000E+03  0.000000E+00  3.500000E+01
 6.000000E+03  0.000000E+00  3.500000E+01
 8.000000E+03  0.000000E+00  3.500000E+01
 1.000000E+04  0.000000E+00  3.500000E+01
 1.200000E+04  0.000000E+00  3.500000E+01
 1.400000E+04  0.000000E+00  3.500000E+01
 1.600000E+04  0.000000E+00  3.500000E+01
 1.800000E+04  0.000000E+00  3.500000E+01
 2.000000E+04  0.000000E+00  3.500000E+01
 0.000000E+00  1.000000E+00  3.500000E+01
 2.000000E+03  1.000000E+00  3.500000E+01
 4.000000E+03  1.000000E+00  3.500000E+01
 6.000000E+03  1.000000E+00  3.500000E+01
 8.000000E+03  1.000000E+00  3.500000E+01
 1.000000E+04  1.000000E+00  3.500000E+01
 1.200000E+04  1.000000E+00  3.500000E+01
 1.400000E+04  1.000000E+00  3.500000E+01
 1.600000E+04  1.000000E+00  3.500000E+01
 1.800000E+04  1.000000E+00  3.500000E+01
 2.000000E+04  1.000000E+00  3.500000E+01
 0.000000E+00  0.000000E+00  4.000000E+01
 2.000000E+03  0.000000E+00  4.000000E+01
 4.000000E+03  0.000000E+00  4.000000E+01
 6.000000E+03  0.000000E+00  4.000000E+01
 8.000000E+03  0.000000E+00  4.000000E+01
 1.000000E+04  0.000000E+00  4.000000E+01
 1.200000E+04  0.000000E+00  4.000000E+01
 1.400000E+04  0.000000E+00  4.000000E+01
 1.600000E+04  0.000000E+00  4.000000E+01
 1.800000E+04  0.000000E+00  4.000000E+01
 2.000000E+04  0.000000E+00  4.000000E+01
 0.000000E+00  1.000000E+00  4.000000E+01
 2.000000E+03  1.000000E+00  4.000000E+01
 4.000000E+03  1.000000E+00  4.000000E+01
 6.000000E+03  1.000000E+00  4.000000E+01
 8.000000E+03  1.000000E+00  4.000000E+01
 1.000000E+04  1.000000E+00  4.000000E+01
 1.200000E+04  1.000000E+00  4.000000E+01
 1.400000E+04  1.000000E+00  4.000000E+01
 1.600000E+04  1.000000E+00  4.000000E+01
 1.800000E+04  1.000000E+00  4.000000E+01
 2.000000E+04  1.000000E+00  4.000000E+01
 0.000000E+00  0.000000E+00  4.500000E+01
 2.000000E+03  0.000000E+00  4.500000E+01
 4.000000E+03  0.000000E+00  4.500000E+01
 6.000000E+03  0.000000E+00  4.500000E+01
 8.000000E+03  0.000000E+00  4.500000E+01
 1.000000E+04  0.000000E+00  4.500000E+01
 1.200000E+04  0.000000E+00  4.500000E+01
 1.400000E+04  0.000000E+00  4.500000E+01
 1.600000E+04  0.000000E+00  4.500000E+01
 1.800000E+04  0.000000E+00  4.500000E+01
 2.000000E+04  0.000000E+00  4.500000E+01
 0.000000E+00  1.000000E+00  4.500000E+01
 2.000000E+03  1.000000E+00  4.500000E+01
 4.000000E+03  1.000000E+00  4.500000E+01
 6.000000E+03  1.000000E+00  4.500000E+01
 8.000000E+03  1.000000E+00  4.500000E+01
 1.000000E+04  1.000000E+00  4.500000E+01
 1.200000E+04  1.000000E+00  4.500000E+01
 1.400000E+04  1.000000E+00  4.500000E+01
 1.600000E+04  1.000000E+00  4.500000E+01
 1.800000E+04  1.000000E+00  4.500000E+01
 2.000000E+04  1.000000E+00  4.500000E+01
 0.000000E+00  0.000000E+00  5.000000E+01
 2.000000E+03  0.000000E+00  5.000000E+01
 4.000000E+03  0.000000E+00  5.000000E+01
 6.000000E+03  0.000000E+00  5.000000E+01
 8.000000E+03  0.000000E+00  5.000000E+01
 1.000000E+04  0.000000E+00  5.000000E+01
 1.200000E+04  0.000000E+00  5.000000E+01
 1.400000E+04  0.000000E+00  5.000000E+01
 1.600000E+04  0.000000E+00  5.000000E+01
 1.800000E+04  0.000000E+00  5.000000E+01
 2.000000E+04  0.000000E+00  5.000000E+01
 0.000000E+00  1.000000E+00  5.000000E+01
 2.000000E+03  1.000000E+00  5.000000E+01
 4.000000E+03  1.000000E+00  5.000000E+01
 6.000000E+03  1.000000E+00  5.000000E+01
[...]
CELL_DATA      200
SCALARS Porosity             float 1
LOOKUP_TABLE default
 4.377100E-01  4.377100E-01  4.377100E-01  4.377099E-01  4.377099E-01  4.377099E-01  4.377099E-01  4.377099E-01  4.377099E-01  4.377099E-01
 4.377100E-01  4.377100E-01  4.377100E-01  4.377099E-01  4.377099E-01  4.377099E-01  4.377099E-01  4.377099E-01  4.377099E-01  4.377099E-01
 4.377100E-01  4.377100E-01  4.377100E-01  4.377099E-01  4.377099E-01  4.377099E-01  4.377099E-01  4.377099E-01  4.377099E-01  4.377099E-01
 4.377100E-01  4.377100E-01  4.377100E-01  4.377099E-01  4.377099E-01  4.377099E-01  4.377099E-01  4.377099E-01  4.377099E-01  4.377099E-01
 4.377100E-01  4.377100E-01  4.377100E-01  4.377099E-01  4.377099E-01  4.377099E-01  4.377099E-01  4.377099E-01  4.377099E-01  4.377099E-01
 4.377100E-01  4.377100E-01  4.377100E-01  4.377099E-01  4.377099E-01  4.377099E-01  4.377099E-01  4.377099E-01  4.377099E-01  4.377099E-01
 4.377098E-01  4.377100E-01  4.377100E-01  4.377099E-01  4.377099E-01  4.377099E-01  4.377099E-01  4.377099E-01  4.377099E-01  4.377099E-01
 4.377098E-01  4.377100E-01  4.377100E-01  4.377099E-01  4.377099E-01  4.377099E-01  4.377099E-01  4.377099E-01  4.377099E-01  4.377099E-01
 4.377098E-01  4.377100E-01  4.377100E-01  4.377100E-01  4.377099E-01  4.377099E-01  4.377099E-01  4.377099E-01  4.377099E-01  4.377099E-01
 4.377098E-01  4.377100E-01  4.377100E-01  4.377100E-01  4.377099E-01  4.377099E-01  4.377099E-01  4.377099E-01  4.377099E-01  4.377099E-01
 4.377098E-01  4.377100E-01  4.377100E-01  4.377100E-01  4.377099E-01  4.377099E-01  4.377099E-01  4.377099E-01  4.377099E-01  4.377099E-01
 4.377098E-01  4.377100E-01  4.377100E-01  4.377100E-01  4.377099E-01  4.377099E-01  4.377099E-01  4.377099E-01  4.377099E-01  4.377099E-01
 4.377098E-01  4.377100E-01  4.377100E-01  4.377100E-01  4.377099E-01  4.377099E-01  4.377099E-01  4.377099E-01  4.377099E-01  4.377099E-01
 4.377098E-01  4.377100E-01  4.377100E-01  4.377100E-01  4.377100E-01  4.377099E-01  4.377099E-01  4.377099E-01  4.377099E-01  4.377099E-01
 4.377100E-01  4.377100E-01  4.377100E-01  4.377100E-01  4.377100E-01  4.377099E-01  4.377099E-01  4.377099E-01  4.377099E-01  4.377099E-01
 4.377100E-01  4.377100E-01  4.377100E-01  4.377100E-01  4.377100E-01  4.377099E-01  4.377099E-01  4.377099E-01  4.377099E-01  4.377099E-01
 4.377100E-01  4.377100E-01  4.377100E-01  4.377100E-01  4.377100E-01  4.377100E-01  4.377099E-01  4.377099E-01  4.377099E-01  4.377099E-01
 4.377100E-01  4.377100E-01  4.377100E-01  4.377100E-01  4.377100E-01  4.377100E-01  4.377099E-01  4.377099E-01  4.377099E-01  4.377099E-01
 4.377100E-01  4.377100E-01  4.377100E-01  4.377100E-01  4.377100E-01  4.377100E-01  4.377100E-01  4.377099E-01  4.377099E-01  4.377099E-01
 4.377100E-01  4.377100E-01  4.377100E-01  4.377100E-01  4.377100E-01  4.377100E-01  4.377100E-01  4.377099E-01  4.377099E-01  4.377099E-01


SCALARS Permeability         float 1
LOOKUP_TABLE default
 8.829804E-13  8.829803E-13  8.829803E-13  8.829803E-13  8.829802E-13  8.829802E-13  8.829802E-13  8.829802E-13  8.829802E-13  8.829802E-13
 8.829804E-13  8.829803E-13  8.829803E-13  8.829803E-13  8.829802E-13  8.829802E-13  8.829802E-13  8.829802E-13  8.829802E-13  8.829802E-13
 8.829804E-13  8.829803E-13  8.829803E-13  8.829803E-13  8.829802E-13  8.829802E-13  8.829802E-13  8.829802E-13  8.829802E-13  8.829802E-13
 8.829804E-13  8.829803E-13  8.829803E-13  8.829803E-13  8.829803E-13  8.829802E-13  8.829802E-13  8.829802E-13  8.829802E-13  8.829802E-13
 8.829804E-13  8.829803E-13  8.829803E-13  8.829803E-13  8.829803E-13  8.829802E-13  8.829802E-13  8.829802E-13  8.829802E-13  8.829802E-13
 8.829804E-13  8.829803E-13  8.829803E-13  8.829803E-13  8.829803E-13  8.829802E-13  8.829802E-13  8.829802E-13  8.829802E-13  8.829802E-13
 8.829794E-13  8.829803E-13  8.829803E-13  8.829803E-13  8.829803E-13  8.829802E-13  8.829802E-13  8.829802E-13  8.829802E-13  8.829802E-13
 8.829794E-13  8.829803E-13  8.829803E-13  8.829803E-13  8.829803E-13  8.829803E-13  8.829802E-13  8.829802E-13  8.829802E-13  8.829802E-13
 8.829794E-13  8.829803E-13  8.829803E-13  8.829803E-13  8.829803E-13  8.829803E-13  8.829802E-13  8.829802E-13  8.829802E-13  8.829802E-13
 8.829794E-13  8.829803E-13  8.829803E-13  8.829803E-13  8.829803E-13  8.829803E-13  8.829803E-13  8.829802E-13  8.829802E-13  8.829802E-13
 8.829794E-13  8.829803E-13  8.829803E-13  8.829803E-13  8.829803E-13  8.829803E-13  8.829803E-13  8.829803E-13  8.829802E-13  8.829802E-13
 8.829794E-13  8.829804E-13  8.829803E-13  8.829803E-13  8.829803E-13  8.829803E-13  8.829803E-13  8.829803E-13  8.829802E-13  8.829802E-13
 8.829794E-13  8.829804E-13  8.829803E-13  8.829803E-13  8.829803E-13  8.829803E-13  8.829803E-13  8.829803E-13  8.829803E-13  8.829802E-13
 8.829794E-13  8.829804E-13  8.829803E-13  8.829803E-13  8.829803E-13  8.829803E-13  8.829803E-13  8.829803E-13  8.829803E-13  8.829803E-13
 8.829804E-13  8.829804E-13  8.829803E-13  8.829803E-13  8.829803E-13  8.829803E-13  8.829803E-13  8.829803E-13  8.829803E-13  8.829803E-13
 8.829804E-13  8.829804E-13  8.829803E-13  8.829803E-13  8.829803E-13  8.829803E-13  8.829803E-13  8.829803E-13  8.829803E-13  8.829803E-13
 8.829804E-13  8.829804E-13  8.829803E-13  8.829803E-13  8.829803E-13  8.829803E-13  8.829803E-13  8.829803E-13  8.829803E-13  8.829803E-13
 8.829804E-13  8.829804E-13  8.829803E-13  8.829803E-13  8.829803E-13  8.829803E-13  8.829803E-13  8.829803E-13  8.829803E-13  8.829803E-13
 8.829805E-13  8.829804E-13  8.829803E-13  8.829803E-13  8.829803E-13  8.829803E-13  8.829803E-13  8.829803E-13  8.829803E-13  8.829803E-13
 8.829805E-13  8.829804E-13  8.829803E-13  8.829803E-13  8.829803E-13  8.829803E-13  8.829803E-13  8.829803E-13  8.829803E-13  8.829803E-13


SCALARS Liquid_Pressure      float 1
LOOKUP_TABLE default
 8.329331E+06  7.957313E+06  7.784194E+06  7.681345E+06  7.614982E+06  7.570302E+06  7.539075E+06  7.516218E+06  7.498496E+06  7.483860E+06
 8.284163E+06  7.912149E+06  7.739035E+06  7.636189E+06  7.569828E+06  7.525148E+06  7.493922E+06  7.471066E+06  7.453344E+06  7.438709E+06
 8.239002E+06  7.866987E+06  7.693878E+06  7.591034E+06  7.524674E+06  7.479996E+06  7.448771E+06  7.425915E+06  7.408194E+06  7.393559E+06
 8.193846E+06  7.821827E+06  7.648721E+06  7.545880E+06  7.479522E+06  7.434845E+06  7.403621E+06  7.380765E+06  7.363044E+06  7.348410E+06
 8.148696E+06  7.776667E+06  7.603566E+06  7.500728E+06  7.434371E+06  7.389695E+06  7.358472E+06  7.335617E+06  7.317897E+06  7.303262E+06
 8.103552E+06  7.731509E+06  7.558413E+06  7.455577E+06  7.389222E+06  7.344547E+06  7.313324E+06  7.290470E+06  7.272750E+06  7.258116E+06
 8.058415E+06  7.686352E+06  7.513260E+06  7.410427E+06  7.344074E+06  7.299400E+06  7.268178E+06  7.245324E+06  7.227605E+06  7.212971E+06
 8.013271E+06  7.641197E+06  7.468109E+06  7.365278E+06  7.298927E+06  7.254254E+06  7.223033E+06  7.200180E+06  7.182461E+06  7.167828E+06
 7.968122E+06  7.596042E+06  7.422959E+06  7.320131E+06  7.253781E+06  7.209109E+06  7.177889E+06  7.155036E+06  7.137318E+06  7.122685E+06
 7.922966E+06  7.550889E+06  7.377810E+06  7.274985E+06  7.208636E+06  7.163966E+06  7.132747E+06  7.109894E+06  7.092176E+06  7.077544E+06
 7.877805E+06  7.505737E+06  7.332663E+06  7.229840E+06  7.163493E+06  7.118824E+06  7.087605E+06  7.064754E+06  7.047036E+06  7.032404E+06
 7.832638E+06  7.460587E+06  7.287516E+06  7.184696E+06  7.118351E+06  7.073683E+06  7.042465E+06  7.019614E+06  7.001897E+06  6.987266E+06
 7.787465E+06  7.415437E+06  7.242371E+06  7.139554E+06  7.073211E+06  7.028544E+06  6.997326E+06  6.974476E+06  6.956759E+06  6.942128E+06
 7.742286E+06  7.370289E+06  7.197228E+06  7.094413E+06  7.028071E+06  6.983405E+06  6.952189E+06  6.929339E+06  6.911623E+06  6.896992E+06
 7.697101E+06  7.325143E+06  7.152085E+06  7.049273E+06  6.982933E+06  6.938268E+06  6.907053E+06  6.884203E+06  6.866488E+06  6.851857E+06
 7.651923E+06  7.279997E+06  7.106944E+06  7.004134E+06  6.937796E+06  6.893133E+06  6.861918E+06  6.839069E+06  6.821354E+06  6.806724E+06
 7.606750E+06  7.234853E+06  7.061804E+06  6.958997E+06  6.892660E+06  6.847998E+06  6.816784E+06  6.793936E+06  6.776221E+06  6.761591E+06
 7.561583E+06  7.189710E+06  7.016665E+06  6.913861E+06  6.847526E+06  6.802865E+06  6.771652E+06  6.748804E+06  6.731090E+06  6.716460E+06
 7.516422E+06  7.144568E+06  6.971528E+06  6.868726E+06  6.802393E+06  6.757733E+06  6.726520E+06  6.703673E+06  6.685959E+06  6.671330E+06
 7.471268E+06  7.099427E+06  6.926392E+06  6.823592E+06  6.757261E+06  6.712602E+06  6.681390E+06  6.658544E+06  6.640830E+06  6.626202E+06


SCALARS Temperature          float 1
LOOKUP_TABLE default
 1.500485E+02  1.500266E+02  1.500163E+02  1.500102E+02  1.500063E+02  1.500036E+02  1.500018E+02  1.500004E+02  1.499994E+02  1.499985E+02
 1.500485E+02  1.500266E+02  1.500163E+02  1.500102E+02  1.500063E+02  1.500036E+02  1.500018E+02  1.500004E+02  1.499994E+02  1.499985E+02
 1.500485E+02  1.500266E+02  1.500163E+02  1.500102E+02  1.500063E+02  1.500036E+02  1.500018E+02  1.500004E+02  1.499994E+02  1.499985E+02
 1.500485E+02  1.500266E+02  1.500163E+02  1.500102E+02  1.500063E+02  1.500036E+02  1.500018E+02  1.500004E+02  1.499994E+02  1.499985E+02
 1.500485E+02  1.500266E+02  1.500163E+02  1.500102E+02  1.500063E+02  1.500036E+02  1.500018E+02  1.500004E+02  1.499994E+02  1.499985E+02
 1.500485E+02  1.500266E+02  1.500163E+02  1.500102E+02  1.500063E+02  1.500036E+02  1.500018E+02  1.500004E+02  1.499994E+02  1.499985E+02
 1.500483E+02  1.500266E+02  1.500163E+02  1.500102E+02  1.500063E+02  1.500036E+02  1.500018E+02  1.500004E+02  1.499994E+02  1.499985E+02
 1.500483E+02  1.500266E+02  1.500163E+02  1.500102E+02  1.500063E+02  1.500036E+02  1.500018E+02  1.500004E+02  1.499994E+02  1.499985E+02
 1.500483E+02  1.500266E+02  1.500163E+02  1.500102E+02  1.500063E+02  1.500036E+02  1.500018E+02  1.500004E+02  1.499994E+02  1.499985E+02
 1.500484E+02  1.500266E+02  1.500163E+02  1.500102E+02  1.500063E+02  1.500036E+02  1.500018E+02  1.500004E+02  1.499994E+02  1.499985E+02
 1.500484E+02  1.500266E+02  1.500163E+02  1.500102E+02  1.500063E+02  1.500036E+02  1.500018E+02  1.500004E+02  1.499994E+02  1.499985E+02
 1.500484E+02  1.500266E+02  1.500163E+02  1.500102E+02  1.500063E+02  1.500036E+02  1.500018E+02  1.500004E+02  1.499994E+02  1.499985E+02
 1.500484E+02  1.500266E+02  1.500163E+02  1.500102E+02  1.500063E+02  1.500037E+02  1.500018E+02  1.500004E+02  1.499994E+02  1.499985E+02
 1.500484E+02  1.500266E+02  1.500163E+02  1.500102E+02  1.500063E+02  1.500037E+02  1.500018E+02  1.500004E+02  1.499994E+02  1.499985E+02
 1.500487E+02  1.500266E+02  1.500163E+02  1.500102E+02  1.500063E+02  1.500037E+02  1.500018E+02  1.500004E+02  1.499994E+02  1.499985E+02
 1.500487E+02  1.500266E+02  1.500163E+02  1.500102E+02  1.500063E+02  1.500037E+02  1.500018E+02  1.500004E+02  1.499994E+02  1.499985E+02
 1.500487E+02  1.500266E+02  1.500163E+02  1.500102E+02  1.500063E+02  1.500037E+02  1.500018E+02  1.500004E+02  1.499994E+02  1.499985E+02
 1.500487E+02  1.500266E+02  1.500163E+02  1.500102E+02  1.500063E+02  1.500037E+02  1.500018E+02  1.500004E+02  1.499994E+02  1.499985E+02
 1.500487E+02  1.500267E+02  1.500164E+02  1.500102E+02  1.500063E+02  1.500037E+02  1.500018E+02  1.500004E+02  1.499994E+02  1.499985E+02
 1.500487E+02  1.500267E+02  1.500164E+02  1.500102E+02  1.500063E+02  1.500037E+02  1.500018E+02  1.500004E+02  1.499994E+02  1.499985E+02


SCALARS pH                   float 1
LOOKUP_TABLE default
 6.144448E+00  6.144415E+00  6.144400E+00  6.144391E+00  6.144385E+00  6.144381E+00  6.144379E+00  6.144377E+00  6.144375E+00  6.144374E+00
 6.144448E+00  6.144415E+00  6.144400E+00  6.144391E+00  6.144385E+00  6.144381E+00  6.144379E+00  6.144377E+00  6.144375E+00  6.144374E+00
 6.144448E+00  6.144415E+00  6.144400E+00  6.144391E+00  6.144385E+00  6.144381E+00  6.144379E+00  6.144377E+00  6.144375E+00  6.144374E+00
 6.144448E+00  6.144415E+00  6.144400E+00  6.144391E+00  6.144385E+00  6.144381E+00  6.144379E+00  6.144377E+00  6.144375E+00  6.144374E+00
 6.144448E+00  6.144415E+00  6.144400E+00  6.144391E+00  6.144385E+00  6.144381E+00  6.144379E+00  6.144377E+00  6.144375E+00  6.144374E+00
 6.144448E+00  6.144416E+00  6.144400E+00  6.144391E+00  6.144385E+00  6.144381E+00  6.144379E+00  6.144377E+00  6.144375E+00  6.144374E+00
 6.144455E+00  6.144416E+00  6.144400E+00  6.144391E+00  6.144385E+00  6.144381E+00  6.144379E+00  6.144377E+00  6.144375E+00  6.144374E+00
 6.144455E+00  6.144416E+00  6.144400E+00  6.144391E+00  6.144385E+00  6.144382E+00  6.144379E+00  6.144377E+00  6.144375E+00  6.144374E+00
 6.144455E+00  6.144416E+00  6.144400E+00  6.144391E+00  6.144385E+00  6.144382E+00  6.144379E+00  6.144377E+00  6.144375E+00  6.144374E+00
 6.144455E+00  6.144416E+00  6.144400E+00  6.144391E+00  6.144385E+00  6.144382E+00  6.144379E+00  6.144377E+00  6.144375E+00  6.144374E+00
 6.144455E+00  6.144416E+00  6.144400E+00  6.144391E+00  6.144385E+00  6.144382E+00  6.144379E+00  6.144377E+00  6.144375E+00  6.144374E+00
 6.144455E+00  6.144416E+00  6.144400E+00  6.144391E+00  6.144385E+00  6.144382E+00  6.144379E+00  6.144377E+00  6.144375E+00  6.144374E+00
 6.144455E+00  6.144416E+00  6.144400E+00  6.144391E+00  6.144385E+00  6.144382E+00  6.144379E+00  6.144377E+00  6.144375E+00  6.144374E+00
 6.144455E+00  6.144416E+00  6.144400E+00  6.144391E+00  6.144386E+00  6.144382E+00  6.144379E+00  6.144377E+00  6.144375E+00  6.144374E+00
 6.144448E+00  6.144416E+00  6.144400E+00  6.144391E+00  6.144386E+00  6.144382E+00  6.144379E+00  6.144377E+00  6.144375E+00  6.144374E+00
 6.144448E+00  6.144416E+00  6.144400E+00  6.144391E+00  6.144386E+00  6.144382E+00  6.144379E+00  6.144377E+00  6.144375E+00  6.144374E+00
 6.144448E+00  6.144416E+00  6.144400E+00  6.144391E+00  6.144386E+00  6.144382E+00  6.144379E+00  6.144377E+00  6.144375E+00  6.144374E+00
 6.144448E+00  6.144416E+00  6.144400E+00  6.144391E+00  6.144386E+00  6.144382E+00  6.144379E+00  6.144377E+00  6.144375E+00  6.144374E+00
 6.144448E+00  6.144416E+00  6.144400E+00  6.144391E+00  6.144386E+00  6.144382E+00  6.144379E+00  6.144377E+00  6.144375E+00  6.144374E+00
 6.144448E+00  6.144416E+00  6.144400E+00  6.144391E+00  6.144386E+00  6.144382E+00  6.144379E+00  6.144377E+00  6.144375E+00  6.144374E+00


SCALARS Total_H+             float 1
LOOKUP_TABLE default
-3.038882E-03 -3.039632E-03 -3.039986E-03 -3.040197E-03 -3.040334E-03 -3.040426E-03 -3.040491E-03 -3.040538E-03 -3.040574E-03 -3.040604E-03
-3.038881E-03 -3.039631E-03 -3.039985E-03 -3.040196E-03 -3.040333E-03 -3.040426E-03 -3.040490E-03 -3.040538E-03 -3.040574E-03 -3.040603E-03
-3.038881E-03 -3.039631E-03 -3.039985E-03 -3.040196E-03 -3.040333E-03 -3.040425E-03 -3.040490E-03 -3.040537E-03 -3.040573E-03 -3.040603E-03
-3.038881E-03 -3.039630E-03 -3.039984E-03 -3.040195E-03 -3.040332E-03 -3.040425E-03 -3.040489E-03 -3.040536E-03 -3.040573E-03 -3.040602E-03
-3.038881E-03 -3.039629E-03 -3.039983E-03 -3.040195E-03 -3.040332E-03 -3.040424E-03 -3.040489E-03 -3.040536E-03 -3.040572E-03 -3.040601E-03
-3.038880E-03 -3.039629E-03 -3.039983E-03 -3.040194E-03 -3.040331E-03 -3.040423E-03 -3.040488E-03 -3.040535E-03 -3.040572E-03 -3.040601E-03
-3.038892E-03 -3.039628E-03 -3.039982E-03 -3.040193E-03 -3.040330E-03 -3.040423E-03 -3.040488E-03 -3.040535E-03 -3.040571E-03 -3.040600E-03
-3.038891E-03 -3.039627E-03 -3.039981E-03 -3.040193E-03 -3.040330E-03 -3.040422E-03 -3.040487E-03 -3.040534E-03 -3.040570E-03 -3.040600E-03
-3.038890E-03 -3.039627E-03 -3.039981E-03 -3.040192E-03 -3.040329E-03 -3.040422E-03 -3.040486E-03 -3.040534E-03 -3.040570E-03 -3.040599E-03
-3.038889E-03 -3.039626E-03 -3.039980E-03 -3.040191E-03 -3.040329E-03 -3.040421E-03 -3.040486E-03 -3.040533E-03 -3.040569E-03 -3.040599E-03
-3.038888E-03 -3.039625E-03 -3.039979E-03 -3.040191E-03 -3.040328E-03 -3.040421E-03 -3.040485E-03 -3.040532E-03 -3.040569E-03 -3.040598E-03
-3.038887E-03 -3.039625E-03 -3.039979E-03 -3.040190E-03 -3.040327E-03 -3.040420E-03 -3.040485E-03 -3.040532E-03 -3.040568E-03 -3.040597E-03
-3.038886E-03 -3.039624E-03 -3.039978E-03 -3.040190E-03 -3.040327E-03 -3.040419E-03 -3.040484E-03 -3.040531E-03 -3.040568E-03 -3.040597E-03
-3.038885E-03 -3.039623E-03 -3.039977E-03 -3.040189E-03 -3.040326E-03 -3.040419E-03 -3.040484E-03 -3.040531E-03 -3.040567E-03 -3.040596E-03
-3.038867E-03 -3.039622E-03 -3.039977E-03 -3.040188E-03 -3.040326E-03 -3.040418E-03 -3.040483E-03 -3.040530E-03 -3.040566E-03 -3.040596E-03
-3.038867E-03 -3.039622E-03 -3.039976E-03 -3.040188E-03 -3.040325E-03 -3.040418E-03 -3.040482E-03 -3.040530E-03 -3.040566E-03 -3.040595E-03
-3.038867E-03 -3.039621E-03 -3.039976E-03 -3.040187E-03 -3.040324E-03 -3.040417E-03 -3.040482E-03 -3.040529E-03 -3.040565E-03 -3.040595E-03
-3.038867E-03 -3.039620E-03 -3.039975E-03 -3.040187E-03 -3.040324E-03 -3.040416E-03 -3.040481E-03 -3.040528E-03 -3.040565E-03 -3.040594E-03
-3.038866E-03 -3.039620E-03 -3.039974E-03 -3.040186E-03 -3.040323E-03 -3.040416E-03 -3.040481E-03 -3.040528E-03 -3.040564E-03 -3.040594E-03
-3.038866E-03 -3.039619E-03 -3.039974E-03 -3.040185E-03 -3.040323E-03 -3.040415E-03 -3.040480E-03 -3.040527E-03 -3.040564E-03 -3.040593E-03


SCALARS Total_SiO2(aq)       float 1
LOOKUP_TABLE default
 1.039622E-02  1.039434E-02  1.039345E-02  1.039293E-02  1.039259E-02  1.039237E-02  1.039221E-02  1.039209E-02  1.039200E-02  1.039193E-02
 1.039622E-02  1.039434E-02  1.039345E-02  1.039293E-02  1.039259E-02  1.039237E-02  1.039221E-02  1.039209E-02  1.039200E-02  1.039193E-02
 1.039622E-02  1.039434E-02  1.039345E-02  1.039293E-02  1.039259E-02  1.039237E-02  1.039221E-02  1.039209E-02  1.039200E-02  1.039193E-02
 1.039622E-02  1.039434E-02  1.039345E-02  1.039293E-02  1.039259E-02  1.039237E-02  1.039221E-02  1.039209E-02  1.039200E-02  1.039193E-02
 1.039622E-02  1.039434E-02  1.039345E-02  1.039293E-02  1.039259E-02  1.039237E-02  1.039221E-02  1.039209E-02  1.039200E-02  1.039193E-02
 1.039622E-02  1.039434E-02  1.039345E-02  1.039293E-02  1.039259E-02  1.039237E-02  1.039221E-02  1.039209E-02  1.039200E-02  1.039193E-02
 1.039643E-02  1.039434E-02  1.039345E-02  1.039293E-02  1.039259E-02  1.039237E-02  1.039221E-02  1.039209E-02  1.039200E-02  1.039193E-02
 1.039643E-02  1.039434E-02  1.039345E-02  1.039293E-02  1.039259E-02  1.039237E-02  1.039221E-02  1.039209E-02  1.039200E-02  1.039193E-02
 1.039643E-02  1.039434E-02  1.039345E-02  1.039293E-02  1.039259E-02  1.039237E-02  1.039221E-02  1.039209E-02  1.039200E-02  1.039193E-02
 1.039644E-02  1.039434E-02  1.039345E-02  1.039293E-02  1.039259E-02  1.039237E-02  1.039221E-02  1.039209E-02  1.039200E-02  1.039193E-02
 1.039644E-02  1.039434E-02  1.039345E-02  1.039293E-02  1.039259E-02  1.039237E-02  1.039221E-02  1.039209E-02  1.039200E-02  1.039193E-02
 1.039644E-02  1.039434E-02  1.039346E-02  1.039293E-02  1.039259E-02  1.039237E-02  1.039221E-02  1.039209E-02  1.039200E-02  1.039193E-02
 1.039644E-02  1.039434E-02  1.039346E-02  1.039293E-02  1.039259E-02  1.039237E-02  1.039221E-02  1.039209E-02  1.039200E-02  1.039193E-02
 1.039645E-02  1.039434E-02  1.039346E-02  1.039293E-02  1.039259E-02  1.039237E-02  1.039221E-02  1.039209E-02  1.039200E-02  1.039193E-02
 1.039624E-02  1.039434E-02  1.039346E-02  1.039293E-02  1.039259E-02  1.039237E-02  1.039221E-02  1.039209E-02  1.039200E-02  1.039193E-02
 1.039624E-02  1.039434E-02  1.039346E-02  1.039293E-02  1.039259E-02  1.039237E-02  1.039221E-02  1.039209E-02  1.039200E-02  1.039193E-02
 1.039623E-02  1.039434E-02  1.039346E-02  1.039293E-02  1.039259E-02  1.039237E-02  1.039221E-02  1.039209E-02  1.039200E-02  1.039193E-02
 1.039623E-02  1.039434E-02  1.039346E-02  1.039293E-02  1.039260E-02  1.039237E-02  1.039221E-02  1.039209E-02  1.039200E-02  1.039193E-02
 1.039623E-02  1.039434E-02  1.039346E-02  1.039293E-02  1.039260E-02  1.039237E-02  1.039221E-02  1.039209E-02  1.039200E-02  1.039193E-02