# vtk DataFile Version 2.0
PFLOTRAN output
ASCII
DATASET UNSTRUCTURED_GRID
POINTS          462 float
 0.000000E+00  0.000000E+00  0.000000E+00
 1.000000E+01  0.000000E+00  0.000000E+00
 2.000000E+01  0.000000E+00  0.000000E+00
 3.000000E+01  0.000000E+00  0.000000E+00
 4.000000E+01  0.000000E+00  0.000000E+00
 5.000000E+01  0.000000E+00  0.000000E+00
 6.000000E+01  0.000000E+00  0.000000E+00
 7.000000E+01  0.000000E+00  0.000000E+00
 8.000000E+01  0.000000E+00  0.000000E+00
 9.000000E+01  0.000000E+00  0.000000E+00
 1.000000E+02  0.000000E+00  0.000000E+00
 0.000000E+00  1.000000E+00  0.000000E+00
 1.000000E+01  1.000000E+00  0.000000E+00
 2.000000E+01  1.000000E+00  0.000000E+00
 3.000000E+01  1.000000E+00  0.000000E+00
 4.000000E+01  1.000000E+00  0.000000E+00
 5.000000E+01  1.000000E+00  0.000000E+00
 6.000000E+01  1.000000E+00  0.000000E+00
 7.000000E+01  1.000000E+00  0.000000E+00
 8.000000E+01  1.000000E+00  0.000000E+00
 9.000000E+01  1.000000E+00  0.000000E+00
 1.000000E+02  1.000000E+00  0.000000E+00
 0.000000E+00  0.000000E+00  5.000000E+00
 1.000000E+01  0.000000E+00  5.000000E+00
 2.000000E+01  0.000000E+00  5.000000E+00
 3.000000E+01  0.000000E+00  5.000000E+00
 4.000000E+01  0.000000E+00  5.000000E+00
 5.000000E+01  0.000000E+00  5.000000E+00
 6.000000E+01  0.000000E+00  5.000000E+00
 7.000000E+01  0.000000E+00  5.000000E+00
 8.000000E+01  0.000000E+00  5.000000E+00
 9.000000E+01  0.000000E+00  5.000000E+00
 1.000000E+02  0.000000E+00  5.000000E+00
 0.000000E+00  1.000000E+00  5.000000E+00
 1.000000E+01  1.000000E+00  5.000000E+00
 2.000000E+01  1.000000E+00  5.000000E+00
 3.000000E+01  1.000000E+00  5.000000E+00
 4.000000E+01  1.000000E+00  5.000000E+00
 5.000000E+01  1.000000E+00  5.000000E+00
 6.000000E+01  1.000000E+00  5.000000E+00
 7.000000E+01  1.000000E+00  5.000000E+00
 8.000000E+01  1.000000E+00  5.000000E+00
 9.000000E+01  1.000000E+00  5.000000E+00
 1.000000E+02  1.000000E+00  5.000000E+00
 0.000000E+00  0.000000E+00  1.000000E+01
 1.000000E+01  0.000000E+00  1.000000E+01
 2.000000E+01  0.000000E+00  1.000000E+01
 3.000000E+01  0.000000E+00  1.000000E+01
 4.000000E+01  0.000000E+00  1.000000E+01
 5.000000E+01  0.000000E+00  1.000000E+01
 6.000000E+01  0.000000E+00  1.000000E+01
 7.000000E+01  0.000000E+00  1.000000E+01
 8.000000E+01  0.000000E+00  1.000000E+01
 9.000000E+01  0.000000E+00  1.000000E+01
 1.000000E+02  0.000000E+00  1.000000E+01
 0.000000E+00  1.000000E+00  1.000000E+01
 1.000000E+01  1.000000E+00  1.000000E+01
 2.000000E+01  1.000000E+00  1.000000E+01
 3.000000E+01  1.000000E+00  1.000000E+01
 4.000000E+01  1.000000E+00  1.000000E+01
 5.000000E+01  1.000000E+00  1.000000E+01
 6.000000E+01  1.000000E+00  1.000000E+01
 7.000000E+01  1.000000E+00  1.000000E+01
 8.000000E+01  1.000000E+00  1.000000E+01
 9.000000E+01  1.000000E+00  1.000000E+01
 1.000000E+02  1.000000E+00  1.000000E+01
 0.000000E+00  0.000000E+00  1.500000E+01
 1.000000E+01  0.000000E+00  1.500000E+01
 2.000000E+01  0.000000E+00  1.500000E+01
 3.000000E+01  0.000000E+00  1.500000E+01
 4.000000E+01  0.000000E+00  1.500000E+01
 5.000000E+01  0.000000E+00  1.500000E+01
 6.000000E+01  0.000000E+00  1.500000E+01
 7.000000E+01  0.000000E+00  1.500000E+01
 8.000000E+01  0.000000E+00  1.500000E+01
 9.000000E+01  0.000000E+00  1.500000E+01
 1.000000E+02  0.000000E+00  1.500000E+01
 0.000000E+00  1.000000E+00  1.500000E+01
 1.000000E+01  1.000000E+00  1.500000E+01
 2.000000E+01  1.000000E+00  1.500000E+01
 3.000000E+01  1.000000E+00  1.500000E+01
 4.000000E+01  1.000000E+00  1.500000E+01
 5.000000E+01  1.000000E+00  1.500000E+01
 6.000000E+01  1.000000E+00  1.500000E+01
 7.000000E+01  1.000000E+00  1.500000E+01
 8.000000E+01  1.000000E+00  1.500000E+01
 9.000000E+01  1.000000E+00  1.500000E+01
 1.000000E+02  1.000000E+00  1.500000E+01
 0.000000E+00  0.000000E+00  2.000000E+01
 1.000000E+01  0.000000E+00  2.000000E+01
 2.000000E+01  0.000000E+00  2.000000E+01
 3.000000E+01  0.000000E+00  2.000000E+01
 4.000000E+01  0.000000E+00  2.000000E+01
 5.000000E+01  0.000000E+00  2.000000E+01
 6.000000E+01  0.000000E+00  2.000000E+01
 7.000000E+01  0.000000E+00  2.000000E+01
 8.000000E+01  0.000000E+00  2.000000E+01
 9.000000E+01  0.000000E+00  2.000000E+01
 1.000000E+02  0.000000E+00  2.000000E+01
 0.000000E+00  1.000000E+00  2.000000E+01
 1.000000E+01  1.000000E+00  2.000000E+01
 2.000000E+01  1.000000E+00  2.000000E+01
 3.000000E+01  1.000000E+00  2.000000E+01
 4.000000E+01  1.000000E+00  2.000000E+01
 5.000000E+01  1.000000E+00  2.000000E+01
 6.000000E+01  1.000000E+00  2.000000E+01
 7.000000E+01  1.000000E+00  2.000000E+01
 8.000000E+01  1.000000E+00  2.000000E+01
 9.000000E+01  1.000000E+00  2.000000E+01
 1.000000E+02  1.000000E+00  2.000000E+01
 0.000000E+00  0.000000E+00  2.500000E+01
 1.000000E+01  0.000000E+00  2.500000E+01
 2.000000E+01  0.000000E+00  2.500000E+01
 3.000000E+01  0.000000E+00  2.500000E+01
 4.000000E+01  0.000000E+00  2.500000E+01
 5.000000E+01  0.000000E+00  2.500000E+01
 6.000000E+01  0.000000E+00  2.500000E+01
 7.000000E+01  0.000000E+00  2.500000E+01
 8.000000E+01  0.000000E+00  2.500000E+01
 9.000000E+01  0.000000E+00  2.500000E+01
 1.000000E+02  0.000000E+00  2.500000E+01
 0.000000E+00  1.000000E+00  2.500000E+01
 1.000000E+01  1.000000E+00  2.500000E+01
 2.000000E+01  1.000000E+00  2.500000E+01
 3.000000E+01  1.000000E+00  2.500000E+01
 4.000000E+01  1.000000E+00  2.500000E+01
 5.000000E+01  1.000000E+00  2.500000E+01
 6.000000E+01  1.000000E+00  2.500000E+01
 7.000000E+01  1.000000E+00  2.500000E+01
 8.000000E+01  1.000000E+00  2.500000E+01
 9.000000E+01  1.000000E+00  2.500000E+01
 1.000000E+02  1.000000E+00  2.500000E+01
 0.000000E+00  0.000000E+00  3.000000E+01
 1.000000E+01  0.000000E+00  3.000000E+01
 2.000000E+01  0.000000E+00  3.000000E+01
 3.000000E+01  0.000000E+00  3.000000E+01
 4.000000E+01  0.000000E+00  3.000000E+01
 5.000000E+01  0.000000E+00  3.000000E+01
 6.000000E+01  0.000000E+00  3.000000E+01
 7.000000E+01  0.000000E+00  3.000000E+01
 8.000000E+01  0.000000E+00  3.000000E+01
 9.000000E+01  0.000000E+00  3.000000E+01
 1.000000E+02  0.000000E+00  3.000000E+01
 0.000000E+00  1.000000E+00  3.000000E+01
 1.000000E+01  1.000000E+00  3.000000E+01
 2.000000E+01  1.000000E+00  3.000000E+01
 3.000000E+01  1.000000E+00  3.000000E+01
 4.000000E+01  1.000000E+00  3.000000E+01
 5.000000E+01  1.000000E+00  3.000000E+01
 6.000000E+01  1.000000E+00  3.000000E+01
 7.000000E+01  1.000000E+00  3.000000E+01
 8.000000E+01  1.000000E+00  3.000000E+01
 9.000000E+01  1.000000E+00  3.000000E+01
 1.000000E+02  1.000000E+00  3.000000E+01
 0.000000E+00  0.000000E+00  3.500000E+01
 1.000000E+01  0.000000E+00  3.500000E+01
 2.000000E+01  0.000000E+00  3.500000E+01
 3.000000E+01  0.000000E+00  3.500000E+01
 4.000000E+01  0.000000E+00  3.500000E+01
 5.000000E+01  0.000000E+00  3.500000E+01
 6.000000E+01  0.000000E+00  3.500000E+01
 7.000000E+01  0.000000E+00  3.500000E+01
 8.000000E+01  0.000000E+00  3.500000E+01
 9.000000E+01  0.000000E+00  3.500000E+01
 1.000000E+02  0.000000E+00  3.500000E+01
 0.000000E+00  1.000000E+00  3.500000E+01
 1.000000E+01  1.000000E+00  3.500000E+01
 2.000000E+01  1.000000E+00  3.500000E+01
 3.000000E+01  1.000000E+00  3.500000E+01
 4.000000E+01  1.000000E+00  3.500000E+01
 5.000000E+01  1.000000E+00  3.500000E+01
 6.000000E+01  1.000000E+00  3.500000E+01
 7.000000E+01  1.000000E+00  3.500000E+01
 8.000000E+01  1.000000E+00  3.500000E+01
 9.000000E+01  1.000000E+00  3.500000E+01
 1.000000E+02  1.000000E+00  3.500000E+01
 0.000000E+00  0.000000E+00  4.000000E+01
 1.000000E+01  0.000000E+00  4.000000E+01
 2.000000E+01  0.000000E+00  4.000000E+01
 3.000000E+01  0.000000E+00  4.000000E+01
 4.000000E+01  0.000000E+00  4.000000E+01
 5.000000E+01  0.000000E+00  4.000000E+01
 6.000000E+01  0.000000E+00  4.000000E+01
 7.000000E+01  0.000000E+00  4.000000E+01
 8.000000E+01  0.000000E+00  4.000000E+01
 9.000000E+01  0.000000E+00  4.000000E+01
 1.000000E+02  0.000000E+00  4.000000E+01
 0.000000E+00  1.000000E+00  4.000000E+01
 1.000000E+01  1.000000E+00  4.000000E+01
 2.000000E+01  1.000000E+00  4.000000E+01
 3.000000E+01  1.000000E+00  4.000000E+01
 4.000000E+01  1.000000E+00  4.000000E+01
 5.000000E+01  1.000000E+00  4.000000E+01
 6.000000E+01  1.000000E+00  4.000000E+01
 7.000000E+01  1.000000E+00  4.000000E+01
 8.000000E+01  1.000000E+00  4.000000E+01
 9.000000E+01  1.000000E+00  4.000000E+01
 1.000000E+02  1.000000E+00  4.000000E+01
 0.000000E+00  0.000000E+00  4.500000E+01
 1.000000E+01  0.000000E+00  4.500000E+01
 2.000000E+01  0.000000E+00  4.500000E+01
 3.000000E+01  0.000000E+00  4.500000E+01
 4.000000E+01  0.000000E+00  4.500000E+01
 5.000000E+01  0.000000E+00  4.500000E+01
 6.000000E+01  0.000000E+00  4.500000E+01
 7.000000E+01  0.000000E+00  4.500000E+01
 8.000000E+01  0.000000E+00  4.500000E+01
 9.000000E+01  0.000000E+00  4.500000E+01
 1.000000E+02  0.000000E+00  4.500000E+01
 0.000000E+00  1.000000E+00  4.500000E+01
 1.000000E+01  1.000000E+00  4.500000E+01
 2.000000E+01  1.000000E+00  4.500000E+01
 3.000000E+01  1.000000E+00  4.500000E+01
 4.000000E+01  1.000000E+00  4.500000E+01
 5.000000E+01  1.000000E+00  4.500000E+01
 6.000000E+01  1.000000E+00  4.500000E+01
 7.000000E+01  1.000000E+00  4.500000E+01
 8.000000E+01  1.000000E+00  4.500000E+01
 9.000000E+01  1.000000E+00  4.500000E+01
 1.000000E+02  1.000000E+00  4.500000E+01
 0.000000E+00  0.000000E+00  5.000000E+01
 1.000000E+01  0.000000E+00  5.000000E+01
 2.000000E+01  0.000000E+00  5.000000E+01
 3.000000E+01  0.000000E+00  5.000000E+01
 4.000000E+01  0.000000E+00  5.000000E+01
 5.000000E+01  0.000000E+00  5.000000E+01
 6.000000E+01  0.000000E+00  5.000000E+01
 7.000000E+01  0.000000E+00  5.000000E+01
 8.000000E+01  0.000000E+00  5.000000E+01
 9.000000E+01  0.000000E+00  5.000000E+01
 1.000000E+02  0.000000E+00  5.000000E+01
 0.000000E+00  1.000000E+00  5.000000E+01
 1.000000E+01  1.000000E+00  5.000000E+01
 2.000000E+01  1.000000E+00  5.000000E+01
 3.000000E+01  1.000000E+00  5.000000E+01
[...]
CELL_DATA      200
SCALARS Porosity             float 1
LOOKUP_TABLE default
 4.377104E-01  4.377104E-01  4.377105E-01  4.377104E-01  4.377104E-01  4.377104E-01  4.377104E-01  4.377104E-01  4.377104E-01  4.377104E-01
 4.377097E-01  4.377104E-01  4.377104E-01  4.377104E-01  4.377104E-01  4.377104E-01  4.377104E-01  4.377104E-01  4.377104E-01  4.377104E-01
 4.377058E-01  4.377098E-01  4.377104E-01  4.377104E-01  4.377104E-01  4.377104E-01  4.377104E-01  4.377104E-01  4.377104E-01  4.377104E-01
 4.376930E-01  4.377073E-01  4.377101E-01  4.377104E-01  4.377104E-01  4.377104E-01  4.377104E-01  4.377104E-01  4.377104E-01  4.377104E-01
 4.376693E-01  4.377002E-01  4.377090E-01  4.377103E-01  4.377104E-01  4.377104E-01  4.377104E-01  4.377104E-01  4.377104E-01  4.377104E-01
 4.376720E-01  4.376872E-01  4.377062E-01  4.377100E-01  4.377104E-01  4.377104E-01  4.377104E-01  4.377104E-01  4.377104E-01  4.377104E-01
 4.378234E-01  4.376795E-01  4.377020E-01  4.377094E-01  4.377104E-01  4.377104E-01  4.377104E-01  4.377104E-01  4.377104E-01  4.377104E-01
 4.378235E-01  4.376772E-01  4.376999E-01  4.377090E-01  4.377103E-01  4.377104E-01  4.377104E-01  4.377104E-01  4.377104E-01  4.377104E-01
 4.378235E-01  4.376762E-01  4.376986E-01  4.377087E-01  4.377103E-01  4.377104E-01  4.377104E-01  4.377104E-01  4.377104E-01  4.377104E-01
 4.378235E-01  4.376759E-01  4.376980E-01  4.377085E-01  4.377103E-01  4.377104E-01  4.377104E-01  4.377104E-01  4.377104E-01  4.377104E-01
 4.378235E-01  4.376759E-01  4.376980E-01  4.377085E-01  4.377103E-01  4.377104E-01  4.377104E-01  4.377104E-01  4.377104E-01  4.377104E-01
 4.378235E-01  4.376762E-01  4.376986E-01  4.377087E-01  4.377103E-01  4.377104E-01  4.377104E-01  4.377104E-01  4.377104E-01  4.377104E-01
 4.378234E-01  4.376772E-01  4.376999E-01  4.377090E-01  4.377103E-01  4.377104E-01  4.377104E-01  4.377104E-01  4.377104E-01  4.377104E-01
 4.378233E-01  4.376795E-01  4.377020E-01  4.377094E-01  4.377104E-01  4.377104E-01  4.377104E-01  4.377104E-01  4.377104E-01  4.377104E-01
 4.376720E-01  4.376872E-01  4.377062E-01  4.377100E-01  4.377104E-01  4.377104E-01  4.377105E-01  4.377104E-01  4.377104E-01  4.377104E-01
 4.376693E-01  4.377003E-01  4.377090E-01  4.377103E-01  4.377104E-01  4.377105E-01  4.377105E-01  4.377104E-01  4.377104E-01  4.377104E-01
 4.376930E-01  4.377073E-01  4.377101E-01  4.377104E-01  4.377105E-01  4.377105E-01  4.377105E-01  4.377104E-01  4.377104E-01  4.377104E-01
 4.377058E-01  4.377098E-01  4.377104E-01  4.377105E-01  4.377105E-01  4.377105E-01  4.377105E-01  4.377104E-01  4.377104E-01  4.377104E-01
 4.377097E-01  4.377104E-01  4.377105E-01  4.377105E-01  4.377105E-01  4.377105E-01  4.377105E-01  4.377105E-01  4.377104E-01  4.377104E-01
 4.377104E-01  4.377105E-01  4.377105E-01  4.377105E-01  4.377105E-01  4.377105E-01  4.377105E-01  4.377105E-01  4.377104E-01  4.377104E-01


SCALARS Permeability         float 1
LOOKUP_TABLE default
 8.829825E-13  8.829828E-13  8.829828E-13  8.829828E-13  8.829828E-13  8.829828E-13  8.829828E-13  8.829828E-13  8.829827E-13  8.829827E-13
 8.829789E-13  8.829823E-13  8.829828E-13  8.829828E-13  8.829828E-13  8.829828E-13  8.829828E-13  8.829828E-13  8.829828E-13  8.829827E-13
 8.829592E-13  8.829794E-13  8.829825E-13  8.829828E-13  8.829828E-13  8.829828E-13  8.829828E-13  8.829828E-13  8.829828E-13  8.829827E-13
 8.828947E-13  8.829670E-13  8.829809E-13  8.829826E-13  8.829828E-13  8.829828E-13  8.829828E-13  8.829828E-13  8.829828E-13  8.829828E-13
 8.827749E-13  8.829312E-13  8.829753E-13  8.829820E-13  8.829827E-13  8.829828E-13  8.829828E-13  8.829828E-13  8.829828E-13  8.829828E-13
 8.827885E-13  8.828652E-13  8.829615E-13  8.829804E-13  8.829826E-13  8.829828E-13  8.829828E-13  8.829828E-13  8.829828E-13  8.829828E-13
 8.835541E-13  8.828264E-13  8.829402E-13  8.829773E-13  8.829823E-13  8.829828E-13  8.829828E-13  8.829828E-13  8.829828E-13  8.829828E-13
 8.835543E-13  8.828147E-13  8.829294E-13  8.829752E-13  8.829821E-13  8.829827E-13  8.829828E-13  8.829828E-13  8.829828E-13  8.829828E-13
 8.835545E-13  8.828099E-13  8.829231E-13  8.829738E-13  8.829819E-13  8.829827E-13  8.829828E-13  8.829828E-13  8.829828E-13  8.829828E-13
 8.835546E-13  8.828080E-13  8.829201E-13  8.829731E-13  8.829818E-13  8.829827E-13  8.829828E-13  8.829828E-13  8.829828E-13  8.829828E-13
 8.835545E-13  8.828080E-13  8.829201E-13  8.829731E-13  8.829818E-13  8.829827E-13  8.829828E-13  8.829828E-13  8.829828E-13  8.829828E-13
 8.835543E-13  8.828099E-13  8.829231E-13  8.829738E-13  8.829819E-13  8.829827E-13  8.829828E-13  8.829828E-13  8.829828E-13  8.829828E-13
 8.835540E-13  8.828146E-13  8.829294E-13  8.829753E-13  8.829821E-13  8.829828E-13  8.829828E-13  8.829828E-13  8.829828E-13  8.829828E-13
 8.835536E-13  8.828263E-13  8.829402E-13  8.829773E-13  8.829823E-13  8.829828E-13  8.829828E-13  8.829828E-13  8.829828E-13  8.829828E-13
 8.827882E-13  8.828652E-13  8.829615E-13  8.829804E-13  8.829826E-13  8.829828E-13  8.829828E-13  8.829828E-13  8.829828E-13  8.829828E-13
 8.827749E-13  8.829313E-13  8.829753E-13  8.829821E-13  8.829828E-13  8.829828E-13  8.829828E-13  8.829828E-13  8.829828E-13  8.829828E-13
 8.828948E-13  8.829670E-13  8.829809E-13  8.829827E-13  8.829828E-13  8.829828E-13  8.829828E-13  8.829828E-13  8.829828E-13  8.829828E-13
 8.829592E-13  8.829795E-13  8.829825E-13  8.829828E-13  8.829828E-13  8.829828E-13  8.829828E-13  8.829828E-13  8.829828E-13  8.829828E-13
 8.829789E-13  8.829824E-13  8.829828E-13  8.829828E-13  8.829828E-13  8.829828E-13  8.829828E-13  8.829828E-13  8.829828E-13  8.829828E-13
 8.829826E-13  8.829828E-13  8.829829E-13  8.829829E-13  8.829828E-13  8.829828E-13  8.829828E-13  8.829828E-13  8.829828E-13  8.829828E-13


SCALARS Liquid_Pressure      float 1
LOOKUP_TABLE default
 8.010258E+06  7.965310E+06  7.898477E+06  7.826106E+06  7.756405E+06  7.692498E+06  7.635026E+06  7.583613E+06  7.537557E+06  7.496133E+06
 7.987564E+06  7.934931E+06  7.861660E+06  7.785352E+06  7.713511E+06  7.648491E+06  7.590450E+06  7.538745E+06  7.492533E+06  7.451017E+06
 7.991179E+06  7.920201E+06  7.833080E+06  7.748774E+06  7.672713E+06  7.605537E+06  7.546402E+06  7.494136E+06  7.447627E+06  7.405934E+06
 8.030281E+06  7.922672E+06  7.812365E+06  7.715862E+06  7.633674E+06  7.563444E+06  7.502780E+06  7.449736E+06  7.402814E+06  7.360878E+06
 8.123214E+06  7.943972E+06  7.798534E+06  7.685752E+06  7.595879E+06  7.521936E+06  7.459441E+06  7.405472E+06  7.358063E+06  7.315840E+06
 8.305844E+06  7.983888E+06  7.789444E+06  7.657149E+06  7.558652E+06  7.480668E+06  7.416210E+06  7.361260E+06  7.313335E+06  7.270809E+06
 8.649488E+06  8.034996E+06  7.781154E+06  7.628335E+06  7.521199E+06  7.439256E+06  7.372900E+06  7.317006E+06  7.268589E+06  7.225773E+06
 8.823338E+06  8.068373E+06  7.767951E+06  7.597379E+06  7.482697E+06  7.397318E+06  7.329325E+06  7.272623E+06  7.223785E+06  7.180723E+06
 8.897616E+06  8.076178E+06  7.745853E+06  7.562632E+06  7.442423E+06  7.354519E+06  7.285327E+06  7.228035E+06  7.178890E+06  7.135649E+06
 8.905476E+06  8.057327E+06  7.712680E+06  7.522965E+06  7.399850E+06  7.310613E+06  7.240788E+06  7.183184E+06  7.133878E+06  7.090543E+06
 8.860258E+06  8.012152E+06  7.667522E+06  7.477814E+06  7.354703E+06  7.265468E+06  7.195644E+06  7.138042E+06  7.088737E+06  7.045403E+06
 8.761967E+06  7.940657E+06  7.610378E+06  7.427179E+06  7.306981E+06  7.219084E+06  7.149896E+06  7.092608E+06  7.043466E+06  7.000228E+06
 8.597284E+06  7.842514E+06  7.542164E+06  7.371625E+06  7.256960E+06  7.171592E+06  7.103607E+06  7.046912E+06  6.998079E+06  6.955023E+06
 8.333087E+06  7.718818E+06  7.465061E+06  7.312282E+06  7.205168E+06  7.123240E+06  7.056894E+06  7.001010E+06  6.952601E+06  6.909793E+06
 7.899211E+06  7.577414E+06  7.383053E+06  7.250800E+06  7.152329E+06  7.074362E+06  7.009918E+06  6.954979E+06  6.907065E+06  6.864548E+06
 7.626351E+06  7.447217E+06  7.301849E+06  7.189109E+06  7.099263E+06  7.025340E+06  6.962861E+06  6.908907E+06  6.861511E+06  6.819298E+06
 7.443177E+06  7.335640E+06  7.225389E+06  7.128925E+06  7.046766E+06  6.976559E+06  6.915914E+06  6.862887E+06  6.815980E+06  6.774056E+06
 7.313820E+06  7.242888E+06  7.155813E+06  7.071544E+06  6.995513E+06  6.928362E+06  6.869249E+06  6.817003E+06  6.770510E+06  6.728832E+06
 7.219932E+06  7.167331E+06  7.094099E+06  7.017828E+06  6.946019E+06  6.881027E+06  6.823010E+06  6.771327E+06  6.725134E+06  6.683635E+06
 7.152334E+06  7.107414E+06  7.040619E+06  6.968287E+06  6.898621E+06  6.834744E+06  6.777299E+06  6.725911E+06  6.679876E+06  6.638471E+06


SCALARS Temperature          float 1
LOOKUP_TABLE default
 1.500324E+02  1.500282E+02  1.500258E+02  1.500228E+02  1.500189E+02  1.500147E+02  1.500107E+02  1.500071E+02  1.500038E+02  1.500010E+02
 1.500507E+02  1.500353E+02  1.500281E+02  1.500236E+02  1.500192E+02  1.500148E+02  1.500108E+02  1.500071E+02  1.500038E+02  1.500010E+02
 1.500786E+02  1.500520E+02  1.500349E+02  1.500261E+02  1.500202E+02  1.500152E+02  1.500109E+02  1.500072E+02  1.500039E+02  1.500010E+02
 1.500944E+02  1.500749E+02  1.500474E+02  1.500309E+02  1.500219E+02  1.500159E+02  1.500112E+02  1.500073E+02  1.500039E+02  1.500010E+02
 1.500863E+02  1.500935E+02  1.500645E+02  1.500385E+02  1.500246E+02  1.500169E+02  1.500116E+02  1.500075E+02  1.500040E+02  1.500011E+02
 1.500599E+02  1.501016E+02  1.500826E+02  1.500485E+02  1.500283E+02  1.500182E+02  1.500121E+02  1.500077E+02  1.500041E+02  1.500011E+02
 1.500100E+02  1.501030E+02  1.500989E+02  1.500595E+02  1.500326E+02  1.500196E+02  1.500126E+02  1.500079E+02  1.500042E+02  1.500011E+02
 1.500035E+02  1.501119E+02  1.501144E+02  1.500702E+02  1.500369E+02  1.500210E+02  1.500131E+02  1.500081E+02  1.500043E+02  1.500012E+02
 1.500014E+02  1.501177E+02  1.501248E+02  1.500783E+02  1.500404E+02  1.500222E+02  1.500135E+02  1.500083E+02  1.500044E+02  1.500012E+02
 1.500013E+02  1.501215E+02  1.501312E+02  1.500833E+02  1.500426E+02  1.500230E+02  1.500138E+02  1.500084E+02  1.500044E+02  1.500012E+02
 1.500013E+02  1.501215E+02  1.501312E+02  1.500833E+02  1.500426E+02  1.500230E+02  1.500138E+02  1.500084E+02  1.500044E+02  1.500012E+02
 1.500027E+02  1.501207E+02  1.501281E+02  1.500804E+02  1.500414E+02  1.500227E+02  1.500138E+02  1.500084E+02  1.500044E+02  1.500012E+02
 1.500064E+02  1.501183E+02  1.501209E+02  1.500743E+02  1.500388E+02  1.500219E+02  1.500135E+02  1.500083E+02  1.500044E+02  1.500012E+02
 1.500151E+02  1.501135E+02  1.501086E+02  1.500651E+02  1.500352E+02  1.500208E+02  1.500132E+02  1.500081E+02  1.500043E+02  1.500012E+02
 1.500781E+02  1.501208E+02  1.500960E+02  1.500552E+02  1.500313E+02  1.500195E+02  1.500127E+02  1.500080E+02  1.500042E+02  1.500011E+02
 1.501165E+02  1.501184E+02  1.500789E+02  1.500453E+02  1.500277E+02  1.500183E+02  1.500123E+02  1.500078E+02  1.500042E+02  1.500011E+02
 1.501310E+02  1.500994E+02  1.500601E+02  1.500368E+02  1.500246E+02  1.500172E+02  1.500118E+02  1.500076E+02  1.500041E+02  1.500011E+02
 1.501113E+02  1.500710E+02  1.500444E+02  1.500306E+02  1.500224E+02  1.500163E+02  1.500115E+02  1.500074E+02  1.500040E+02  1.500010E+02
 1.500718E+02  1.500471E+02  1.500343E+02  1.500267E+02  1.500208E+02  1.500156E+02  1.500111E+02  1.500073E+02  1.500039E+02  1.500010E+02
 1.500417E+02  1.500336E+02  1.500288E+02  1.500244E+02  1.500198E+02  1.500152E+02  1.500109E+02  1.500072E+02  1.500039E+02  1.500010E+02


SCALARS pH                   float 1
LOOKUP_TABLE default
 6.144272E+00  6.144166E+00  6.144130E+00  6.144117E+00  6.144109E+00  6.144102E+00  6.144096E+00  6.144090E+00  6.144086E+00  6.144081E+00
 6.144685E+00  6.144335E+00  6.144178E+00  6.144127E+00  6.144111E+00  6.144102E+00  6.144096E+00  6.144090E+00  6.144086E+00  6.144081E+00
 6.145175E+00  6.144666E+00  6.144303E+00  6.144160E+00  6.144117E+00  6.144104E+00  6.144096E+00  6.144091E+00  6.144086E+00  6.144081E+00
 6.145240E+00  6.145045E+00  6.144520E+00  6.144230E+00  6.144133E+00  6.144107E+00  6.144097E+00  6.144091E+00  6.144086E+00  6.144081E+00
 6.142543E+00  6.145227E+00  6.144778E+00  6.144342E+00  6.144163E+00  6.144113E+00  6.144098E+00  6.144091E+00  6.144086E+00  6.144081E+00
 6.120498E+00  6.144339E+00  6.144982E+00  6.144477E+00  6.144207E+00  6.144122E+00  6.144100E+00  6.144091E+00  6.144086E+00  6.144081E+00
 6.003998E+00  6.138076E+00  6.144949E+00  6.144598E+00  6.144254E+00  6.144134E+00  6.144102E+00  6.144092E+00  6.144086E+00  6.144082E+00
 6.003988E+00  6.136569E+00  6.144950E+00  6.144682E+00  6.144291E+00  6.144144E+00  6.144104E+00  6.144092E+00  6.144086E+00  6.144082E+00
 6.003990E+00  6.135867E+00  6.144948E+00  6.144736E+00  6.144318E+00  6.144151E+00  6.144106E+00  6.144093E+00  6.144086E+00  6.144082E+00
 6.003992E+00  6.135586E+00  6.144947E+00  6.144765E+00  6.144332E+00  6.144155E+00  6.144107E+00  6.144093E+00  6.144086E+00  6.144082E+00
 6.003988E+00  6.135581E+00  6.144944E+00  6.144764E+00  6.144333E+00  6.144156E+00  6.144107E+00  6.144093E+00  6.144086E+00  6.144082E+00
 6.003983E+00  6.135858E+00  6.144942E+00  6.144735E+00  6.144319E+00  6.144152E+00  6.144106E+00  6.144093E+00  6.144086E+00  6.144082E+00
 6.003979E+00  6.136557E+00  6.144944E+00  6.144680E+00  6.144292E+00  6.144145E+00  6.144105E+00  6.144093E+00  6.144086E+00  6.144082E+00
 6.003991E+00  6.138064E+00  6.144943E+00  6.144597E+00  6.144256E+00  6.144135E+00  6.144103E+00  6.144092E+00  6.144086E+00  6.144082E+00
 6.120503E+00  6.144335E+00  6.144981E+00  6.144479E+00  6.144209E+00  6.144124E+00  6.144101E+00  6.144092E+00  6.144086E+00  6.144082E+00
 6.142552E+00  6.145230E+00  6.144781E+00  6.144346E+00  6.144167E+00  6.144115E+00  6.144099E+00  6.144091E+00  6.144086E+00  6.144081E+00
 6.145251E+00  6.145051E+00  6.144525E+00  6.144235E+00  6.144137E+00  6.144108E+00  6.144098E+00  6.144091E+00  6.144086E+00  6.144081E+00
 6.145183E+00  6.144673E+00  6.144310E+00  6.144164E+00  6.144120E+00  6.144105E+00  6.144097E+00  6.144091E+00  6.144086E+00  6.144081E+00
 6.144691E+00  6.144342E+00  6.144182E+00  6.144130E+00  6.144112E+00  6.144103E+00  6.144096E+00  6.144091E+00  6.144086E+00  6.144081E+00
 6.144275E+00  6.144169E+00  6.144132E+00  6.144118E+00  6.144110E+00  6.144102E+00  6.144096E+00  6.144091E+00  6.144086E+00  6.144081E+00


SCALARS Total_H+             float 1
LOOKUP_TABLE default
-3.059566E-03 -3.060367E-03 -3.060666E-03 -3.060831E-03 -3.060985E-03 -3.061139E-03 -3.061285E-03 -3.061416E-03 -3.061532E-03 -3.061634E-03
-3.056411E-03 -3.059079E-03 -3.060296E-03 -3.060746E-03 -3.060967E-03 -3.061135E-03 -3.061284E-03 -3.061415E-03 -3.061531E-03 -3.061633E-03
-3.052535E-03 -3.056503E-03 -3.059298E-03 -3.060470E-03 -3.060899E-03 -3.061117E-03 -3.061277E-03 -3.061413E-03 -3.061530E-03 -3.061633E-03
-3.049582E-03 -3.053473E-03 -3.057573E-03 -3.059885E-03 -3.060749E-03 -3.061079E-03 -3.061266E-03 -3.061408E-03 -3.061528E-03 -3.061632E-03
-3.034833E-03 -3.050911E-03 -3.055464E-03 -3.058959E-03 -3.060483E-03 -3.061014E-03 -3.061248E-03 -3.061402E-03 -3.061526E-03 -3.061631E-03
-2.912018E-03 -3.044609E-03 -3.053452E-03 -3.057828E-03 -3.060106E-03 -3.060920E-03 -3.061224E-03 -3.061394E-03 -3.061522E-03 -3.061629E-03
-2.327261E-03 -3.008718E-03 -3.051095E-03 -3.056734E-03 -3.059687E-03 -3.060807E-03 -3.061196E-03 -3.061386E-03 -3.061519E-03 -3.061628E-03
-2.327198E-03 -2.999670E-03 -3.049681E-03 -3.055894E-03 -3.059332E-03 -3.060706E-03 -3.061170E-03 -3.061378E-03 -3.061516E-03 -3.061627E-03
-2.327127E-03 -2.995356E-03 -3.048805E-03 -3.055317E-03 -3.059066E-03 -3.060625E-03 -3.061149E-03 -3.061371E-03 -3.061513E-03 -3.061626E-03
-2.327102E-03 -2.993581E-03 -3.048357E-03 -3.055000E-03 -3.058913E-03 -3.060576E-03 -3.061135E-03 -3.061366E-03 -3.061512E-03 -3.061625E-03
-2.327145E-03 -2.993614E-03 -3.048375E-03 -3.055003E-03 -3.058910E-03 -3.060574E-03 -3.061133E-03 -3.061366E-03 -3.061511E-03 -3.061625E-03
-2.327233E-03 -2.995366E-03 -3.048763E-03 -3.055272E-03 -3.059035E-03 -3.060608E-03 -3.061140E-03 -3.061367E-03 -3.061511E-03 -3.061625E-03
-2.327358E-03 -2.999638E-03 -3.049570E-03 -3.055802E-03 -3.059275E-03 -3.060675E-03 -3.061155E-03 -3.061370E-03 -3.061512E-03 -3.061625E-03
-2.327456E-03 -3.008602E-03 -3.050902E-03 -3.056596E-03 -3.059609E-03 -3.060767E-03 -3.061176E-03 -3.061376E-03 -3.061514E-03 -3.061626E-03
-2.911819E-03 -3.044207E-03 -3.053132E-03 -3.057644E-03 -3.060012E-03 -3.060873E-03 -3.061201E-03 -3.061383E-03 -3.061517E-03 -3.061627E-03
-3.034170E-03 -3.050298E-03 -3.055082E-03 -3.058760E-03 -3.060384E-03 -3.060966E-03 -3.061225E-03 -3.061390E-03 -3.061520E-03 -3.061629E-03
-3.048654E-03 -3.052827E-03 -3.057214E-03 -3.059702E-03 -3.060659E-03 -3.061035E-03 -3.061244E-03 -3.061397E-03 -3.061523E-03 -3.061630E-03
-3.051672E-03 -3.055977E-03 -3.059014E-03 -3.060324E-03 -3.060827E-03 -3.061081E-03 -3.061259E-03 -3.061404E-03 -3.061526E-03 -3.061631E-03
-3.055839E-03 -3.058736E-03 -3.060107E-03 -3.060647E-03 -3.060916E-03 -3.061110E-03 -3.061270E-03 -3.061408E-03 -3.061528E-03 -3.061632E-03
-3.059312E-03 -3.060210E-03 -3.060578E-03 -3.060784E-03 -3.060961E-03 -3.061127E-03 -3.061278E-03 -3.061412E-03 -3.061529E-03 -3.061632E-03


SCALARS Total_SiO2(aq)       float 1
LOOKUP_TABLE default
 1.041684E-02  1.041430E-02  1.041380E-02  1.041351E-02  1.041317E-02  1.041282E-02  1.041247E-02  1.041216E-02  1.041188E-02  1.041164E-02
 1.044096E-02  1.041824E-02  1.041440E-02  1.041362E-02  1.041320E-02  1.041283E-02  1.041247E-02  1.041216E-02  1.041188E-02  1.041163E-02
 1.054547E-02  1.043793E-02  1.041739E-02  1.041408E-02  1.041331E-02  1.041286E-02  1.041249E-02  1.041216E-02  1.041188E-02  1.041163E-02
 1.083887E-02  1.050550E-02  1.042860E-02  1.041565E-02  1.041356E-02  1.041293E-02  1.041251E-02  1.041217E-02  1.041188E-02  1.041163E-02
 1.141251E-02  1.067380E-02  1.046068E-02  1.042022E-02  1.041418E-02  1.041304E-02  1.041255E-02  1.041219E-02  1.041189E-02  1.041163E-02
 1.222174E-02  1.098410E-02  1.052946E-02  1.043074E-02  1.041550E-02  1.041323E-02  1.041259E-02  1.041220E-02  1.041189E-02  1.041164E-02
 1.305521E-02  1.139130E-02  1.063152E-02  1.044771E-02  1.041768E-02  1.041351E-02  1.041265E-02  1.041222E-02  1.041190E-02  1.041164E-02
 1.305406E-02  1.149980E-02  1.068376E-02  1.045943E-02  1.041948E-02  1.041377E-02  1.041270E-02  1.041223E-02  1.041190E-02  1.041164E-02
 1.305339E-02  1.154809E-02  1.071432E-02  1.046750E-02  1.042084E-02  1.041398E-02  1.041274E-02  1.041225E-02  1.041191E-02  1.041164E-02
 1.305323E-02  1.156765E-02  1.072870E-02  1.047171E-02  1.042162E-02  1.041410E-02  1.041277E-02  1.041225E-02  1.041191E-02  1.041164E-02
 1.305347E-02  1.156772E-02  1.072870E-02  1.047170E-02  1.042161E-02  1.041410E-02  1.041276E-02  1.041225E-02  1.041191E-02  1.041163E-02
 1.305417E-02  1.154850E-02  1.071459E-02  1.046766E-02  1.042092E-02  1.041400E-02  1.041275E-02  1.041225E-02  1.041191E-02  1.041163E-02
 1.305537E-02  1.150055E-02  1.068429E-02  1.045974E-02  1.041962E-02  1.041382E-02  1.041272E-02  1.041224E-02  1.041190E-02  1.041163E-02
 1.305699E-02  1.139238E-02  1.063231E-02  1.044815E-02  1.041788E-02  1.041359E-02  1.041267E-02  1.041222E-02  1.041189E-02  1.041162E-02
 1.222362E-02  1.098563E-02  1.053052E-02  1.043127E-02  1.041573E-02  1.041332E-02  1.041262E-02  1.041220E-02  1.041188E-02  1.041162E-02
 1.141486E-02  1.067573E-02  1.046184E-02  1.042075E-02  1.041440E-02  1.041313E-02  1.041257E-02  1.041219E-02  1.041188E-02  1.041161E-02
 1.084171E-02  1.050745E-02  1.042962E-02  1.041611E-02  1.041375E-02  1.041300E-02  1.041253E-02  1.041217E-02  1.041187E-02  1.041161E-02
 1.054811E-02  1.043946E-02  1.041814E-02  1.041442E-02  1.041345E-02  1.041291E-02  1.041250E-02  1.041215E-02  1.041186E-02  1.041160E-02
 1.044270E-02  1.041919E-02  1.041487E-02  1.041383E-02  1.041329E-02  1.041285E-02  1.041247E-02  1.041214E-02  1.041185E-02  1.041160E-02