# vtk DataFile Version 2.0
PFLOTRAN output
ASCII
DATASET UNSTRUCTURED_GRID
POINTS          462 float
 0.000000E+00  0.000000E+00  0.000000E+00
 2.000000E+03  0.000000E+00  0.000000E+00
 4.000000E+03  0.000000E+00  0.000000E+00
 6.000000E+03  0.000000E+00  0.000000E+00
 8.000000E+03  0.000000E+00  0.000000E+00
 1.000000E+04  0.000000E+00  0.000000E+00
 1.200000E+04  0.000000E+00  0.000000E+00
 1.400000E+04  0.000000E+00  0.000000E+00
 1.600000E+04  0.000000E+00  0.000000E+00
 1.800000E+04  0.000000E+00  0.000000E+00
 2.000000E+04  0.000000E+00  0.000000E+00
 0.000000E+00  1.000000E+00  0.000000E+00
 2.000000E+03  1.000000E+00  0.000000E+00
 4.000000E+03  1.000000E+00  0.000000E+00
 6.000000E+03  1.000000E+00  0.000000E+00
 8.000000E+03  1.000000E+00  0.000000E+00
 1.000000E+04  1.000000E+00  0.000000E+00
 1.200000E+04  1.000000E+00  0.000000E+00
 1.400000E+04  1.000000E+00  0.000000E+00
 1.600000E+04  1.000000E+00  0.000000E+00
 1.800000E+04  1.000000E+00  0.000000E+00
 2.000000E+04  1.000000E+00  0.000000E+00
 0.000000E+00  0.000000E+00  5.000000E+00
 2.000000E+03  0.000000E+00  5.000000E+00
 4.000000E+03  0.000000E+00  5.000000E+00
 6.000000E+03  0.000000E+00  5.000000E+00
 8.000000E+03  0.000000E+00  5.000000E+00
 1.000000E+04  0.000000E+00  5.000000E+00
 1.200000E+04  0.000000E+00  5.000000E+00
 1.400000E+04  0.000000E+00  5.000000E+00
 1.600000E+04  0.000000E+00  5.000000E+00
 1.800000E+04  0.000000E+00  5.000000E+00
 2.000000E+04  0.000000E+00  5.000000E+00
 0.000000E+00  1.000000E+00  5.000000E+00
 2.000000E+03  1.000000E+00  5.000000E+00
 4.000000E+03  1.000000E+00  5.000000E+00
 6.000000E+03  1.000000E+00  5.000000E+00
 8.000000E+03  1.000000E+00  5.000000E+00
 1.000000E+04  1.000000E+00  5.000000E+00
 1.200000E+04  1.000000E+00  5.000000E+00
 1.400000E+04  1.000000E+00  5.000000E+00
 1.600000E+04  1.000000E+00  5.000000E+00
 1.800000E+04  1.000000E+00  5.000000E+00
 2.000000E+04  1.000000E+00  5.000000E+00
 0.000000E+00  0.000000E+00  1.000000E+01
 2.000000E+03  0.000000E+00  1.000000E+01
 4.000000E+03  0.000000E+00  1.000000E+01
 6.000000E+03  0.000000E+00  1.000000E+01
 8.000000E+03  0.000000E+00  1.000000E+01
 1.000000E+04  0.000000E+00  1.000000E+01
 1.200000E+04  0.000000E+00  1.000000E+01
 1.400000E+04  0.000000E+00  1.000000E+01
 1.600000E+04  0.000000E+00  1.000000E+01
 1.800000E+04  0.000000E+00  1.000000E+01
 2.000000E+04  0.000000E+00  1.000000E+01
 0.000000E+00  1.000000E+00  1.000000E+01
 2.000000E+03  1.000000E+00  1.000000E+01
 4.000000E+03  1.000000E+00  1.000000E+01
 6.000000E+03  1.000000E+00  1.000000E+01
 8.000000E+03  1.000000E+00  1.000000E+01
 1.000000E+04  1.000000E+00  1.000000E+01
 1.200000E+04  1.000000E+00  1.000000E+01
 1.400000E+04  1.000000E+00  1.000000E+01
 1.600000E+04  1.000000E+00  1.000000E+01
 1.800000E+04  1.000000E+00  1.000000E+01
 2.000000E+04  1.000000E+00  1.000000E+01
 0.000000E+00  0.000000E+00  1.500000E+01
 2.000000E+03  0.000000E+00  1.500000E+01
 4.000000E+03  0.000000E+00  1.500000E+01
 6.000000E+03  0.000000E+00  1.500000E+01
 8.000000E+03  0.000000E+00  1.500000E+01
 1.000000E+04  0.000000E+00  1.500000E+01
 1.200000E+04  0.000000E+00  1.500000E+01
 1.400000E+04  0.000000E+00  1.500000E+01
 1.600000E+04  0.000000E+00  1.500000E+01
 1.800000E+04  0.000000E+00  1.500000E+01
 2.000000E+04  0.000000E+00  1.500000E+01
 0.000000E+00  1.000000E+00  1.500000E+01
 2.000000E+03  1.000000E+00  1.500000E+01
 4.000000E+03  1.000000E+00  1.500000E+01
 6.000000E+03  1.000000E+00  1.500000E+01
 8.000000E+03  1.000000E+00  1.500000E+01
 1.000000E+04  1.000000E+00  1.500000E+01
 1.200000E+04  1.000000E+00  1.500000E+01
 1.400000E+04  1.000000E+00  1.500000E+01
 1.600000E+04  1.000000E+00  1.500000E+01
 1.800000E+04  1.000000E+00  1.500000E+01
 2.000000E+04  1.000000E+00  1.500000E+01
 0.000000E+00  0.000000E+00  2.000000E+01
 2.000000E+03  0.000000E+00  2.000000E+01
 4.000000E+03  0.000000E+00  2.000000E+01
 6.000000E+03  0.000000E+00  2.000000E+01
 8.000000E+03  0.000000E+00  2.000000E+01
 1.000000E+04  0.000000E+00  2.000000E+01
 1.200000E+04  0.000000E+00  2.000000E+01
 1.400000E+04  0.000000E+00  2.000000E+01
 1.600000E+04  0.000000E+00  2.000000E+01
 1.800000E+04  0.000000E+00  2.000000E+01
 2.000000E+04  0.000000E+00  2.000000E+01
 0.000000E+00  1.000000E+00  2.000000E+01
 2.000000E+03  1.000000E+00  2.000000E+01
 4.000000E+03  1.000000E+00  2.000000E+01
 6.000000E+03  1.000000E+00  2.000000E+01
 8.000000E+03  1.000000E+00  2.000000E+01
 1.000000E+04  1.000000E+00  2.000000E+01
 1.200000E+04  1.000000E+00  2.000000E+01
 1.400000E+04  1.000000E+00  2.000000E+01
 1.600000E+04  1.000000E+00  2.000000E+01
 1.800000E+04  1.000000E+00  2.000000E+01
 2.000000E+04  1.000000E+00  2.000000E+01
 0.000000E+00  0.000000E+00  2.500000E+01
 2.000000E+03  0.000000E+00  2.500000E+01
 4.000000E+03  0.000000E+00  2.500000E+01
 6.000000E+03  0.000000E+00  2.500000E+01
 8.000000E+03  0.000000E+00  2.500000E+01
 1.000000E+04  0.000000E+00  2.500000E+01
 1.200000E+04  0.000000E+00  2.500000E+01
 1.400000E+04  0.000000E+00  2.500000E+01
 1.600000E+04  0.000000E+00  2.500000E+01
 1.800000E+04  0.000000E+00  2.500000E+01
 2.000000E+04  0.000000E+00  2.500000E+01
 0.000000E+00  1.000000E+00  2.500000E+01
 2.000000E+03  1.000000E+00  2.500000E+01
 4.000000E+03  1.000000E+00  2.500000E+01
 6.000000E+03  1.000000E+00  2.500000E+01
 8.000000E+03  1.000000E+00  2.500000E+01
 1.000000E+04  1.000000E+00  2.500000E+01
 1.200000E+04  1.000000E+00  2.500000E+01
 1.400000E+04  1.000000E+00  2.500000E+01
 1.600000E+04  1.000000E+00  2.500000E+01
 1.800000E+04  1.000000E+00  2.500000E+01
 2.000000E+04  1.000000E+00  2.500000E+01
 0.000000E+00  0.000000E+00  3.000000E+01
 2.000000E+03  0.000000E+00  3.000000E+01
 4.000000E+03  0.000000E+00  3.000000E+01
 6.000000E+03  0.000000E+00  3.000000E+01
 8.000000E+03  0.000000E+00  3.000000E+01
 1.000000E+04  0.000000E+00  3.000000E+01
 1.200000E+04  0.000000E+00  3.000000E+01
 1.400000E+04  0.000000E+00  3.000000E+01
 1.600000E+04  0.000000E+00  3.000000E+01
 1.800000E+04  0.000000E+00  3.000000E+01
 2.000000E+04  0.000000E+00  3.000000E+01
 0.000000E+00  1.000000E+00  3.000000E+01
 2.000000E+03  1.000000E+00  3.000000E+01
 4.000000E+03  1.000000E+00  3.000000E+01
 6.000000E+03  1.000000E+00  3.000000E+01
 8.000000E+03  1.000000E+00  3.000000E+01
 1.000000E+04  1.000000E+00  3.000000E+01
 1.200000E+04  1.000000E+00  3.000000E+01
 1.400000E+04  1.000000E+00  3.000000E+01
 1.600000E+04  1.000000E+00  3.000000E+01
 1.800000E+04  1.000000E+00  3.000000E+01
 2.000000E+04  1.000000E+00  3.000000E+01
 0.000000E+00  0.000000E+00  3.500000E+01
 2.000000E+03  0.000000E+00  3.500000E+01
 4.000000E+03  0.000000E+00  3.500000E+01
 6.000000E+03  0.000000E+00  3.500000E+01
 8.000000E+03  0.000000E+00  3.500000E+01
 1.000000E+04  0.000000E+00  3.500000E+01
 1.200000E+04  0.000000E+00  3.500000E+01
 1.400000E+04  0.000000E+00  3.500000E+01
 1.600000E+04  0.000000E+00  3.500000E+01
 1.800000E+04  0.000000E+00  3.500000E+01
 2.000000E+04  0.000000E+00  3.500000E+01
 0.000000E+00  1.000000E+00  3.500000E+01
 2.000000E+03  1.000000E+00  3.500000E+01
 4.000000E+03  1.000000E+00  3.500000E+01
 6.000000E+03  1.000000E+00  3.500000E+01
 8.000000E+03  1.000000E+00  3.500000E+01
 1.000000E+04  1.000000E+00  3.500000E+01
 1.200000E+04  1.000000E+00  3.500000E+01
 1.400000E+04  1.000000E+00  3.500000E+01
 1.600000E+04  1.000000E+00  3.500000E+01
 1.800000E+04  1.000000E+00  3.500000E+01
 2.000000E+04  1.000000E+00  3.500000E+01
 0.000000E+00  0.000000E+00  4.000000E+01
 2.000000E+03  0.000000E+00  4.000000E+01
 4.000000E+03  0.000000E+00  4.000000E+01
 6.000000E+03  0.000000E+00  4.000000E+01
 8.000000E+03  0.000000E+00  4.000000E+01
 1.000000E+04  0.000000E+00  4.000000E+01
 1.200000E+04  0.000000E+00  4.000000E+01
 1.400000E+04  0.000000E+00  4.000000E+01
 1.600000E+04  0.000000E+00  4.000000E+01
 1.800000E+04  0.000000E+00  4.000000E+01
 2.000000E+04  0.000000E+00  4.000000E+01
 0.000000E+00  1.000000E+00  4.000000E+01
 2.000000E+03  1.000000E+00  4.000000E+01
 4.000000E+03  1.000000E+00  4.000000E+01
 6.000000E+03  1.000000E+00  4.000000E+01
 8.000000E+03  1.000000E+00  4.000000E+01
 1.000000E+04  1.000000E+00  4.000000E+01
 1.200000E+04  1.000000E+00  4.000000E+01
 1.400000E+04  1.000000E+00  4.000000E+01
 1.600000E+04  1.000000E+00  4.000000E+01
 1.800000E+04  1.000000E+00  4.000000E+01
 2.000000E+04  1.000000E+00  4.000000E+01
 0.000000E+00  0.000000E+00  4.500000E+01
 2.000000E+03  0.000000E+00  4.500000E+01
 4.000000E+03  0.000000E+00  4.500000E+01
 6.000000E+03  0.000000E+00  4.500000E+01
 8.000000E+03  0.000000E+00  4.500000E+01
 1.000000E+04  0.000000E+00  4.500000E+01
 1.200000E+04  0.000000E+00  4.500000E+01
 1.400000E+04  0.000000E+00  4.500000E+01
 1.600000E+04  0.000000E+00  4.500000E+01
 1.800000E+04  0.000000E+00  4.500000E+01
 2.000000E+04  0.000000E+00  4.500000E+01
 0.000000E+00  1.000000E+00  4.500000E+01
 2.000000E+03  1.000000E+00  4.500000E+01
 4.000000E+03  1.000000E+00  4.500000E+01
 6.000000E+03  1.000000E+00  4.500000E+01
 8.000000E+03  1.000000E+00  4.500000E+01
 1.000000E+04  1.000000E+00  4.500000E+01
 1.200000E+04  1.000000E+00  4.500000E+01
 1.400000E+04  1.000000E+00  4.500000E+01
 1.600000E+04  1.000000E+00  4.500000E+01
 1.800000E+04  1.000000E+00  4.500000E+01
 2.000000E+04  1.000000E+00  4.500000E+01
 0.000000E+00  0.000000E+00  5.000000E+01
 2.000000E+03  0.000000E+00  5.000000E+01
 4.000000E+03  0.000000E+00  5.000000E+01
 6.000000E+03  0.000000E+00  5.000000E+01
 8.000000E+03  0.000000E+00  5.000000E+01
 1.000000E+04  0.000000E+00  5.000000E+01
 1.200000E+04  0.000000E+00  5.000000E+01
 1.400000E+04  0.000000E+00  5.000000E+01
 1.600000E+04  0.000000E+00  5.000000E+01
 1.800000E+04  0.000000E+00  5.000000E+01
 2.000000E+04  0.000000E+00  5.000000E+01
 0.000000E+00  1.000000E+00  5.000000E+01
 2.000000E+03  1.000000E+00  5.000000E+01
 4.000000E+03  1.000000E+00  5.000000E+01
 6.000000E+03  1.000000E+00  5.000000E+01
[...]
CELL_DATA      200
SCALARS Porosity             float 1
LOOKUP_TABLE default
 4.377100E-01  4.377100E-01  4.377100E-01  4.377100E-01  4.377100E-01  4.377100E-01  4.377100E-01  4.377100E-01  4.377100E-01  4.377100E-01
 4.377100E-01  4.377100E-01  4.377100E-01  4.377100E-01  4.377100E-01  4.377100E-01  4.377100E-01  4.377100E-01  4.377100E-01  4.377100E-01
 4.377100E-01  4.377100E-01  4.377100E-01  4.377100E-01  4.377100E-01  4.377100E-01  4.377100E-01  4.377100E-01  4.377100E-01  4.377100E-01
 4.377100E-01  4.377100E-01  4.377100E-01  4.377100E-01  4.377100E-01  4.377100E-01  4.377100E-01  4.377100E-01  4.377100E-01  4.377100E-01
 4.377100E-01  4.377100E-01  4.377100E-01  4.377100E-01  4.377100E-01  4.377100E-01  4.377100E-01  4.377100E-01  4.377100E-01  4.377100E-01
 4.377100E-01  4.377100E-01  4.377100E-01  4.377100E-01  4.377100E-01  4.377100E-01  4.377100E-01  4.377100E-01  4.377100E-01  4.377100E-01
 4.377100E-01  4.377100E-01  4.377100E-01  4.377100E-01  4.377100E-01  4.377100E-01  4.377100E-01  4.377100E-01  4.377100E-01  4.377100E-01
 4.377100E-01  4.377100E-01  4.377100E-01  4.377100E-01  4.377100E-01  4.377100E-01  4.377100E-01  4.377100E-01  4.377100E-01  4.377100E-01
 4.377100E-01  4.377100E-01  4.377100E-01  4.377100E-01  4.377100E-01  4.377100E-01  4.377100E-01  4.377100E-01  4.377100E-01  4.377100E-01
 4.377100E-01  4.377100E-01  4.377100E-01  4.377100E-01  4.377100E-01  4.377100E-01  4.377100E-01  4.377100E-01  4.377100E-01  4.377100E-01
 4.377100E-01  4.377100E-01  4.377100E-01  4.377100E-01  4.377100E-01  4.377100E-01  4.377100E-01  4.377100E-01  4.377100E-01  4.377100E-01
 4.377100E-01  4.377100E-01  4.377100E-01  4.377100E-01  4.377100E-01  4.377100E-01  4.377100E-01  4.377100E-01  4.377100E-01  4.377100E-01
 4.377100E-01  4.377100E-01  4.377100E-01  4.377100E-01  4.377100E-01  4.377100E-01  4.377100E-01  4.377100E-01  4.377100E-01  4.377100E-01
 4.377100E-01  4.377100E-01  4.377100E-01  4.377100E-01  4.377100E-01  4.377100E-01  4.377100E-01  4.377100E-01  4.377100E-01  4.377100E-01
 4.377100E-01  4.377100E-01  4.377100E-01  4.377100E-01  4.377100E-01  4.377100E-01  4.377100E-01  4.377100E-01  4.377100E-01  4.377100E-01
 4.377100E-01  4.377100E-01  4.377100E-01  4.377100E-01  4.377100E-01  4.377100E-01  4.377100E-01  4.377100E-01  4.377100E-01  4.377100E-01
 4.377100E-01  4.377100E-01  4.377100E-01  4.377100E-01  4.377100E-01  4.377100E-01  4.377100E-01  4.377100E-01  4.377100E-01  4.377100E-01
 4.377100E-01  4.377100E-01  4.377100E-01  4.377100E-01  4.377100E-01  4.377100E-01  4.377100E-01  4.377100E-01  4.377100E-01  4.377100E-01
 4.377100E-01  4.377100E-01  4.377100E-01  4.377100E-01  4.377100E-01  4.377100E-01  4.377100E-01  4.377100E-01  4.377100E-01  4.377100E-01
 4.377100E-01  4.377100E-01  4.377100E-01  4.377100E-01  4.377100E-01  4.377100E-01  4.377100E-01  4.377100E-01  4.377100E-01  4.377100E-01


SCALARS Permeability         float 1
LOOKUP_TABLE default
 8.829806E-13  8.829806E-13  8.829806E-13  8.829806E-13  8.829806E-13  8.829806E-13  8.829806E-13  8.829806E-13  8.829806E-13  8.829806E-13
 8.829806E-13  8.829806E-13  8.829806E-13  8.829806E-13  8.829806E-13  8.829806E-13  8.829806E-13  8.829806E-13  8.829806E-13  8.829806E-13
 8.829807E-13  8.829806E-13  8.829806E-13  8.829806E-13  8.829806E-13  8.829806E-13  8.829806E-13  8.829806E-13  8.829806E-13  8.829806E-13
 8.829807E-13  8.829806E-13  8.829806E-13  8.829806E-13  8.829806E-13  8.829806E-13  8.829806E-13  8.829806E-13  8.829806E-13  8.829806E-13
 8.829807E-13  8.829806E-13  8.829806E-13  8.829806E-13  8.829806E-13  8.829806E-13  8.829806E-13  8.829806E-13  8.829806E-13  8.829806E-13
 8.829807E-13  8.829806E-13  8.829806E-13  8.829806E-13  8.829806E-13  8.829806E-13  8.829806E-13  8.829806E-13  8.829806E-13  8.829806E-13
 8.829806E-13  8.829806E-13  8.829806E-13  8.829806E-13  8.829806E-13  8.829806E-13  8.829806E-13  8.829806E-13  8.829806E-13  8.829806E-13
 8.829806E-13  8.829806E-13  8.829806E-13  8.829806E-13  8.829806E-13  8.829806E-13  8.829806E-13  8.829806E-13  8.829806E-13  8.829806E-13
 8.829806E-13  8.829806E-13  8.829806E-13  8.829806E-13  8.829806E-13  8.829806E-13  8.829806E-13  8.829806E-13  8.829806E-13  8.829806E-13
 8.829806E-13  8.829806E-13  8.829806E-13  8.829806E-13  8.829806E-13  8.829806E-13  8.829806E-13  8.829806E-13  8.829806E-13  8.829806E-13
 8.829806E-13  8.829806E-13  8.829806E-13  8.829806E-13  8.829806E-13  8.829806E-13  8.829806E-13  8.829806E-13  8.829806E-13  8.829806E-13
 8.829806E-13  8.829806E-13  8.829806E-13  8.829806E-13  8.829806E-13  8.829806E-13  8.829806E-13  8.829806E-13  8.829806E-13  8.829806E-13
 8.829806E-13  8.829806E-13  8.829806E-13  8.829806E-13  8.829806E-13  8.829806E-13  8.829806E-13  8.829806E-13  8.829806E-13  8.829806E-13
 8.829806E-13  8.829806E-13  8.829806E-13  8.829806E-13  8.829806E-13  8.829806E-13  8.829806E-13  8.829806E-13  8.829806E-13  8.829806E-13
 8.829807E-13  8.829806E-13  8.829806E-13  8.829806E-13  8.829806E-13  8.829806E-13  8.829806E-13  8.829806E-13  8.829806E-13  8.829806E-13
 8.829807E-13  8.829806E-13  8.829806E-13  8.829806E-13  8.829806E-13  8.829806E-13  8.829806E-13  8.829806E-13  8.829806E-13  8.829806E-13
 8.829807E-13  8.829806E-13  8.829806E-13  8.829806E-13  8.829806E-13  8.829806E-13  8.829806E-13  8.829806E-13  8.829806E-13  8.829806E-13
 8.829807E-13  8.829806E-13  8.829806E-13  8.829806E-13  8.829806E-13  8.829806E-13  8.829806E-13  8.829806E-13  8.829806E-13  8.829806E-13
 8.829807E-13  8.829807E-13  8.829806E-13  8.829806E-13  8.829806E-13  8.829806E-13  8.829806E-13  8.829806E-13  8.829806E-13  8.829806E-13
 8.829807E-13  8.829807E-13  8.829806E-13  8.829806E-13  8.829806E-13  8.829806E-13  8.829806E-13  8.829806E-13  8.829806E-13  8.829806E-13


SCALARS Liquid_Pressure      float 1
LOOKUP_TABLE default
 7.876548E+06  7.607846E+06  7.550390E+06  7.538614E+06  7.536457E+06  7.536034E+06  7.535565E+06  7.533499E+06  7.525159E+06  7.500040E+06
 7.831391E+06  7.562692E+06  7.505237E+06  7.493462E+06  7.491304E+06  7.490881E+06  7.490413E+06  7.488347E+06  7.480007E+06  7.454888E+06
 7.786241E+06  7.517538E+06  7.460085E+06  7.448310E+06  7.446153E+06  7.445730E+06  7.445261E+06  7.443196E+06  7.434856E+06  7.409738E+06
 7.741096E+06  7.472387E+06  7.414935E+06  7.403160E+06  7.401003E+06  7.400580E+06  7.400111E+06  7.398046E+06  7.389706E+06  7.364589E+06
 7.695958E+06  7.427236E+06  7.369786E+06  7.358011E+06  7.355854E+06  7.355431E+06  7.354963E+06  7.352897E+06  7.344558E+06  7.319441E+06
 7.650826E+06  7.382087E+06  7.324638E+06  7.312864E+06  7.310706E+06  7.310284E+06  7.309815E+06  7.307749E+06  7.299411E+06  7.274294E+06
 7.605700E+06  7.336939E+06  7.279491E+06  7.267717E+06  7.265560E+06  7.265137E+06  7.264669E+06  7.262603E+06  7.254265E+06  7.229149E+06
 7.560567E+06  7.291792E+06  7.234346E+06  7.222572E+06  7.220415E+06  7.219992E+06  7.219524E+06  7.217458E+06  7.209120E+06  7.184005E+06
 7.515429E+06  7.246646E+06  7.189202E+06  7.177428E+06  7.175271E+06  7.174849E+06  7.174380E+06  7.172315E+06  7.163976E+06  7.138862E+06
 7.470285E+06  7.201502E+06  7.144059E+06  7.132286E+06  7.130129E+06  7.129706E+06  7.129238E+06  7.127172E+06  7.118834E+06  7.093720E+06
 7.425135E+06  7.156359E+06  7.098917E+06  7.087145E+06  7.084987E+06  7.084565E+06  7.084096E+06  7.082031E+06  7.073693E+06  7.048580E+06
 7.379980E+06  7.111217E+06  7.053777E+06  7.042005E+06  7.039848E+06  7.039425E+06  7.038956E+06  7.036891E+06  7.028554E+06  7.003441E+06
 7.334818E+06  7.066077E+06  7.008638E+06  6.996866E+06  6.994709E+06  6.994286E+06  6.993818E+06  6.991753E+06  6.983415E+06  6.958303E+06
 7.289651E+06  7.020937E+06  6.963500E+06  6.951728E+06  6.949571E+06  6.949149E+06  6.948680E+06  6.946615E+06  6.938278E+06  6.913167E+06
 7.244477E+06  6.975799E+06  6.918364E+06  6.906592E+06  6.904435E+06  6.904013E+06  6.903544E+06  6.901479E+06  6.893142E+06  6.868031E+06
 7.199310E+06  6.930663E+06  6.873228E+06  6.861457E+06  6.859300E+06  6.858878E+06  6.858409E+06  6.856344E+06  6.848008E+06  6.822897E+06
 7.154149E+06  6.885527E+06  6.828094E+06  6.816323E+06  6.814167E+06  6.813744E+06  6.813276E+06  6.811211E+06  6.802874E+06  6.777765E+06
 7.108993E+06  6.840393E+06  6.782962E+06  6.771191E+06  6.769034E+06  6.768612E+06  6.768143E+06  6.766078E+06  6.757742E+06  6.732633E+06
 7.063844E+06  6.795260E+06  6.737830E+06  6.726060E+06  6.723903E+06  6.723481E+06  6.723012E+06  6.720947E+06  6.712611E+06  6.687503E+06
 7.018701E+06  6.750128E+06  6.692700E+06  6.680930E+06  6.678773E+06  6.678351E+06  6.677882E+06  6.675817E+06  6.667482E+06  6.642374E+06


SCALARS Temperature          float 1
LOOKUP_TABLE default
 1.500218E+02  1.500059E+02  1.500025E+02  1.500018E+02  1.500016E+02  1.500016E+02  1.500016E+02  1.500015E+02  1.500010E+02  1.499995E+02
 1.500218E+02  1.500059E+02  1.500025E+02  1.500018E+02  1.500016E+02  1.500016E+02  1.500016E+02  1.500015E+02  1.500010E+02  1.499995E+02
 1.500218E+02  1.500059E+02  1.500025E+02  1.500018E+02  1.500016E+02  1.500016E+02  1.500016E+02  1.500015E+02  1.500010E+02  1.499995E+02
 1.500218E+02  1.500059E+02  1.500025E+02  1.500018E+02  1.500016E+02  1.500016E+02  1.500016E+02  1.500015E+02  1.500010E+02  1.499995E+02
 1.500218E+02  1.500059E+02  1.500025E+02  1.500018E+02  1.500016E+02  1.500016E+02  1.500016E+02  1.500015E+02  1.500010E+02  1.499995E+02
 1.500218E+02  1.500059E+02  1.500025E+02  1.500018E+02  1.500016E+02  1.500016E+02  1.500016E+02  1.500015E+02  1.500010E+02  1.499995E+02
 1.500218E+02  1.500059E+02  1.500025E+02  1.500018E+02  1.500016E+02  1.500016E+02  1.500016E+02  1.500015E+02  1.500010E+02  1.499995E+02
 1.500218E+02  1.500059E+02  1.500025E+02  1.500018E+02  1.500016E+02  1.500016E+02  1.500016E+02  1.500015E+02  1.500010E+02  1.499995E+02
 1.500218E+02  1.500059E+02  1.500025E+02  1.500018E+02  1.500016E+02  1.500016E+02  1.500016E+02  1.500015E+02  1.500010E+02  1.499995E+02
 1.500218E+02  1.500059E+02  1.500025E+02  1.500018E+02  1.500016E+02  1.500016E+02  1.500016E+02  1.500015E+02  1.500010E+02  1.499995E+02
 1.500218E+02  1.500059E+02  1.500025E+02  1.500018E+02  1.500017E+02  1.500016E+02  1.500016E+02  1.500015E+02  1.500010E+02  1.499995E+02
 1.500218E+02  1.500059E+02  1.500025E+02  1.500018E+02  1.500017E+02  1.500016E+02  1.500016E+02  1.500015E+02  1.500010E+02  1.499995E+02
 1.500218E+02  1.500059E+02  1.500025E+02  1.500018E+02  1.500017E+02  1.500016E+02  1.500016E+02  1.500015E+02  1.500010E+02  1.499995E+02
 1.500218E+02  1.500059E+02  1.500025E+02  1.500018E+02  1.500017E+02  1.500016E+02  1.500016E+02  1.500015E+02  1.500010E+02  1.499995E+02
 1.500218E+02  1.500059E+02  1.500025E+02  1.500018E+02  1.500017E+02  1.500016E+02  1.500016E+02  1.500015E+02  1.500010E+02  1.499995E+02
 1.500218E+02  1.500059E+02  1.500025E+02  1.500018E+02  1.500017E+02  1.500016E+02  1.500016E+02  1.500015E+02  1.500010E+02  1.499995E+02
 1.500218E+02  1.500059E+02  1.500025E+02  1.500018E+02  1.500017E+02  1.500016E+02  1.500016E+02  1.500015E+02  1.500010E+02  1.499995E+02
 1.500218E+02  1.500059E+02  1.500025E+02  1.500018E+02  1.500017E+02  1.500016E+02  1.500016E+02  1.500015E+02  1.500010E+02  1.499995E+02
 1.500218E+02  1.500059E+02  1.500025E+02  1.500018E+02  1.500017E+02  1.500016E+02  1.500016E+02  1.500015E+02  1.500010E+02  1.499995E+02
 1.500218E+02  1.500059E+02  1.500025E+02  1.500018E+02  1.500017E+02  1.500016E+02  1.500016E+02  1.500015E+02  1.500010E+02  1.499995E+02


SCALARS pH                   float 1
LOOKUP_TABLE default
 6.144131E+00  6.144107E+00  6.144102E+00  6.144101E+00  6.144101E+00  6.144101E+00  6.144101E+00  6.144100E+00  6.144100E+00  6.144097E+00
 6.144131E+00  6.144107E+00  6.144102E+00  6.144101E+00  6.144101E+00  6.144101E+00  6.144101E+00  6.144100E+00  6.144100E+00  6.144097E+00
 6.144131E+00  6.144107E+00  6.144102E+00  6.144101E+00  6.144101E+00  6.144101E+00  6.144101E+00  6.144100E+00  6.144100E+00  6.144097E+00
 6.144131E+00  6.144107E+00  6.144102E+00  6.144101E+00  6.144101E+00  6.144101E+00  6.144101E+00  6.144100E+00  6.144100E+00  6.144097E+00
 6.144131E+00  6.144107E+00  6.144102E+00  6.144101E+00  6.144101E+00  6.144101E+00  6.144101E+00  6.144100E+00  6.144100E+00  6.144097E+00
 6.144131E+00  6.144107E+00  6.144102E+00  6.144101E+00  6.144101E+00  6.144101E+00  6.144101E+00  6.144100E+00  6.144100E+00  6.144097E+00
 6.144129E+00  6.144107E+00  6.144102E+00  6.144101E+00  6.144101E+00  6.144101E+00  6.144101E+00  6.144100E+00  6.144100E+00  6.144097E+00
 6.144129E+00  6.144107E+00  6.144102E+00  6.144101E+00  6.144101E+00  6.144101E+00  6.144101E+00  6.144100E+00  6.144100E+00  6.144097E+00
 6.144129E+00  6.144107E+00  6.144102E+00  6.144101E+00  6.144101E+00  6.144101E+00  6.144101E+00  6.144100E+00  6.144100E+00  6.144097E+00
 6.144129E+00  6.144107E+00  6.144102E+00  6.144101E+00  6.144101E+00  6.144101E+00  6.144101E+00  6.144100E+00  6.144100E+00  6.144097E+00
 6.144129E+00  6.144107E+00  6.144102E+00  6.144101E+00  6.144101E+00  6.144101E+00  6.144101E+00  6.144100E+00  6.144100E+00  6.144097E+00
 6.144129E+00  6.144107E+00  6.144102E+00  6.144101E+00  6.144101E+00  6.144101E+00  6.144101E+00  6.144100E+00  6.144100E+00  6.144097E+00
 6.144129E+00  6.144107E+00  6.144102E+00  6.144101E+00  6.144101E+00  6.144101E+00  6.144101E+00  6.144100E+00  6.144100E+00  6.144097E+00
 6.144129E+00  6.144107E+00  6.144102E+00  6.144101E+00  6.144101E+00  6.144101E+00  6.144101E+00  6.144100E+00  6.144100E+00  6.144097E+00
 6.144131E+00  6.144107E+00  6.144102E+00  6.144101E+00  6.144101E+00  6.144101E+00  6.144101E+00  6.144100E+00  6.144100E+00  6.144097E+00
 6.144131E+00  6.144107E+00  6.144102E+00  6.144101E+00  6.144101E+00  6.144101E+00  6.144101E+00  6.144100E+00  6.144100E+00  6.144097E+00
 6.144131E+00  6.144107E+00  6.144102E+00  6.144101E+00  6.144101E+00  6.144101E+00  6.144101E+00  6.144100E+00  6.144100E+00  6.144097E+00
 6.144131E+00  6.144107E+00  6.144102E+00  6.144101E+00  6.144101E+00  6.144101E+00  6.144101E+00  6.144100E+00  6.144100E+00  6.144097E+00
 6.144131E+00  6.144107E+00  6.144102E+00  6.144101E+00  6.144101E+00  6.144101E+00  6.144101E+00  6.144100E+00  6.144100E+00  6.144097E+00
 6.144131E+00  6.144107E+00  6.144102E+00  6.144101E+00  6.144101E+00  6.144101E+00  6.144101E+00  6.144100E+00  6.144100E+00  6.144097E+00


SCALARS Total_H+             float 1
LOOKUP_TABLE default
-3.059741E-03 -3.060308E-03 -3.060428E-03 -3.060453E-03 -3.060458E-03 -3.060458E-03 -3.060459E-03 -3.060464E-03 -3.060481E-03 -3.060534E-03
-3.059740E-03 -3.060307E-03 -3.060428E-03 -3.060453E-03 -3.060458E-03 -3.060458E-03 -3.060459E-03 -3.060464E-03 -3.060481E-03 -3.060534E-03
-3.059740E-03 -3.060307E-03 -3.060428E-03 -3.060453E-03 -3.060457E-03 -3.060458E-03 -3.060459E-03 -3.060464E-03 -3.060481E-03 -3.060534E-03
-3.059740E-03 -3.060307E-03 -3.060428E-03 -3.060453E-03 -3.060457E-03 -3.060458E-03 -3.060459E-03 -3.060464E-03 -3.060481E-03 -3.060534E-03
-3.059740E-03 -3.060307E-03 -3.060428E-03 -3.060453E-03 -3.060457E-03 -3.060458E-03 -3.060459E-03 -3.060463E-03 -3.060481E-03 -3.060534E-03
-3.059740E-03 -3.060307E-03 -3.060428E-03 -3.060453E-03 -3.060457E-03 -3.060458E-03 -3.060459E-03 -3.060463E-03 -3.060481E-03 -3.060534E-03
-3.059714E-03 -3.060307E-03 -3.060428E-03 -3.060453E-03 -3.060457E-03 -3.060458E-03 -3.060459E-03 -3.060463E-03 -3.060481E-03 -3.060534E-03
-3.059714E-03 -3.060307E-03 -3.060428E-03 -3.060452E-03 -3.060457E-03 -3.060458E-03 -3.060459E-03 -3.060463E-03 -3.060481E-03 -3.060534E-03
-3.059714E-03 -3.060307E-03 -3.060428E-03 -3.060452E-03 -3.060457E-03 -3.060458E-03 -3.060459E-03 -3.060463E-03 -3.060481E-03 -3.060534E-03
-3.059714E-03 -3.060307E-03 -3.060428E-03 -3.060452E-03 -3.060457E-03 -3.060458E-03 -3.060459E-03 -3.060463E-03 -3.060481E-03 -3.060534E-03
-3.059713E-03 -3.060307E-03 -3.060428E-03 -3.060452E-03 -3.060457E-03 -3.060458E-03 -3.060459E-03 -3.060463E-03 -3.060480E-03 -3.060534E-03
-3.059713E-03 -3.060306E-03 -3.060427E-03 -3.060452E-03 -3.060457E-03 -3.060458E-03 -3.060458E-03 -3.060463E-03 -3.060480E-03 -3.060534E-03
-3.059713E-03 -3.060306E-03 -3.060427E-03 -3.060452E-03 -3.060457E-03 -3.060457E-03 -3.060458E-03 -3.060463E-03 -3.060480E-03 -3.060534E-03
-3.059713E-03 -3.060306E-03 -3.060427E-03 -3.060452E-03 -3.060456E-03 -3.060457E-03 -3.060458E-03 -3.060463E-03 -3.060480E-03 -3.060533E-03
-3.059738E-03 -3.060306E-03 -3.060427E-03 -3.060452E-03 -3.060456E-03 -3.060457E-03 -3.060458E-03 -3.060463E-03 -3.060480E-03 -3.060533E-03
-3.059738E-03 -3.060306E-03 -3.060427E-03 -3.060452E-03 -3.060456E-03 -3.060457E-03 -3.060458E-03 -3.060462E-03 -3.060480E-03 -3.060533E-03
-3.059737E-03 -3.060306E-03 -3.060427E-03 -3.060452E-03 -3.060456E-03 -3.060457E-03 -3.060458E-03 -3.060462E-03 -3.060480E-03 -3.060533E-03
-3.059737E-03 -3.060306E-03 -3.060427E-03 -3.060452E-03 -3.060456E-03 -3.060457E-03 -3.060458E-03 -3.060462E-03 -3.060480E-03 -3.060533E-03
-3.059737E-03 -3.060306E-03 -3.060427E-03 -3.060452E-03 -3.060456E-03 -3.060457E-03 -3.060458E-03 -3.060462E-03 -3.060480E-03 -3.060533E-03
-3.059737E-03 -3.060306E-03 -3.060427E-03 -3.060451E-03 -3.060456E-03 -3.060457E-03 -3.060458E-03 -3.060462E-03 -3.060480E-03 -3.060533E-03


SCALARS Total_SiO2(aq)       float 1
LOOKUP_TABLE default
 1.039396E-02  1.039263E-02  1.039236E-02  1.039231E-02  1.039230E-02  1.039230E-02  1.039230E-02  1.039229E-02  1.039225E-02  1.039212E-02
 1.039396E-02  1.039263E-02  1.039236E-02  1.039231E-02  1.039230E-02  1.039230E-02  1.039230E-02  1.039229E-02  1.039225E-02  1.039213E-02
 1.039396E-02  1.039263E-02  1.039236E-02  1.039231E-02  1.039230E-02  1.039230E-02  1.039230E-02  1.039229E-02  1.039225E-02  1.039213E-02
 1.039396E-02  1.039263E-02  1.039236E-02  1.039231E-02  1.039230E-02  1.039230E-02  1.039230E-02  1.039229E-02  1.039225E-02  1.039213E-02
 1.039396E-02  1.039263E-02  1.039236E-02  1.039231E-02  1.039230E-02  1.039230E-02  1.039230E-02  1.039229E-02  1.039225E-02  1.039213E-02
 1.039396E-02  1.039263E-02  1.039236E-02  1.039231E-02  1.039230E-02  1.039230E-02  1.039230E-02  1.039229E-02  1.039225E-02  1.039213E-02
 1.039419E-02  1.039263E-02  1.039236E-02  1.039231E-02  1.039230E-02  1.039230E-02  1.039230E-02  1.039229E-02  1.039225E-02  1.039213E-02
 1.039419E-02  1.039263E-02  1.039236E-02  1.039231E-02  1.039230E-02  1.039230E-02  1.039230E-02  1.039229E-02  1.039225E-02  1.039213E-02
 1.039419E-02  1.039263E-02  1.039236E-02  1.039231E-02  1.039230E-02  1.039230E-02  1.039230E-02  1.039229E-02  1.039225E-02  1.039213E-02
 1.039419E-02  1.039263E-02  1.039236E-02  1.039231E-02  1.039230E-02  1.039230E-02  1.039230E-02  1.039229E-02  1.039225E-02  1.039213E-02
 1.039419E-02  1.039263E-02  1.039236E-02  1.039231E-02  1.039230E-02  1.039230E-02  1.039230E-02  1.039229E-02  1.039225E-02  1.039213E-02
 1.039419E-02  1.039263E-02  1.039236E-02  1.039231E-02  1.039230E-02  1.039230E-02  1.039230E-02  1.039229E-02  1.039225E-02  1.039213E-02
 1.039419E-02  1.039263E-02  1.039236E-02  1.039231E-02  1.039230E-02  1.039230E-02  1.039230E-02  1.039229E-02  1.039225E-02  1.039213E-02
 1.039419E-02  1.039263E-02  1.039236E-02  1.039231E-02  1.039230E-02  1.039230E-02  1.039230E-02  1.039229E-02  1.039225E-02  1.039213E-02
 1.039396E-02  1.039263E-02  1.039236E-02  1.039231E-02  1.039230E-02  1.039230E-02  1.039230E-02  1.039229E-02  1.039225E-02  1.039213E-02
 1.039396E-02  1.039263E-02  1.039236E-02  1.039231E-02  1.039230E-02  1.039230E-02  1.039230E-02  1.039229E-02  1.039225E-02  1.039213E-02
 1.039396E-02  1.039263E-02  1.039236E-02  1.039231E-02  1.039230E-02  1.039230E-02  1.039230E-02  1.039229E-02  1.039225E-02  1.039213E-02
 1.039396E-02  1.039263E-02  1.039236E-02  1.039231E-02  1.039230E-02  1.039230E-02  1.039230E-02  1.039229E-02  1.039225E-02  1.039213E-02
 1.039396E-02  1.039263E-02  1.039236E-02  1.039231E-02  1.039230E-02  1.039230E-02  1.039230E-02  1.039229E-02  1.039225E-02  1.039213E-02