# vtk DataFile Version 2.0
PFLOTRAN output
ASCII
DATASET UNSTRUCTURED_GRID
POINTS          462 float
 0.000000E+00  0.000000E+00  0.000000E+00
 2.000000E+03  0.000000E+00  0.000000E+00
 4.000000E+03  0.000000E+00  0.000000E+00
 6.000000E+03  0.000000E+00  0.000000E+00
 8.000000E+03  0.000000E+00  0.000000E+00
 1.000000E+04  0.000000E+00  0.000000E+00
 1.200000E+04  0.000000E+00  0.000000E+00
 1.400000E+04  0.000000E+00  0.000000E+00
 1.600000E+04  0.000000E+00  0.000000E+00
 1.800000E+04  0.000000E+00  0.000000E+00
 2.000000E+04  0.000000E+00  0.000000E+00
 0.000000E+00  1.000000E+00  0.000000E+00
 2.000000E+03  1.000000E+00  0.000000E+00
 4.000000E+03  1.000000E+00  0.000000E+00
 6.000000E+03  1.000000E+00  0.000000E+00
 8.000000E+03  1.000000E+00  0.000000E+00
 1.000000E+04  1.000000E+00  0.000000E+00
 1.200000E+04  1.000000E+00  0.000000E+00
 1.400000E+04  1.000000E+00  0.000000E+00
 1.600000E+04  1.000000E+00  0.000000E+00
 1.800000E+04  1.000000E+00  0.000000E+00
 2.000000E+04  1.000000E+00  0.000000E+00
 0.000000E+00  0.000000E+00  5.000000E+00
 2.000000E+03  0.000000E+00  5.000000E+00
 4.000000E+03  0.000000E+00  5.000000E+00
 6.000000E+03  0.000000E+00  5.000000E+00
 8.000000E+03  0.000000E+00  5.000000E+00
 1.000000E+04  0.000000E+00  5.000000E+00
 1.200000E+04  0.000000E+00  5.000000E+00
 1.400000E+04  0.000000E+00  5.000000E+00
 1.600000E+04  0.000000E+00  5.000000E+00
 1.800000E+04  0.000000E+00  5.000000E+00
 2.000000E+04  0.000000E+00  5.000000E+00
 0.000000E+00  1.000000E+00  5.000000E+00
 2.000000E+03  1.000000E+00  5.000000E+00
 4.000000E+03  1.000000E+00  5.000000E+00
 6.000000E+03  1.000000E+00  5.000000E+00
 8.000000E+03  1.000000E+00  5.000000E+00
 1.000000E+04  1.000000E+00  5.000000E+00
 1.200000E+04  1.000000E+00  5.000000E+00
 1.400000E+04  1.000000E+00  5.000000E+00
 1.600000E+04  1.000000E+00  5.000000E+00
 1.800000E+04  1.000000E+00  5.000000E+00
 2.000000E+04  1.000000E+00  5.000000E+00
 0.000000E+00  0.000000E+00  1.000000E+01
 2.000000E+03  0.000000E+00  1.000000E+01
 4.000000E+03  0.000000E+00  1.000000E+01
 6.000000E+03  0.000000E+00  1.000000E+01
 8.000000E+03  0.000000E+00  1.000000E+01
 1.000000E+04  0.000000E+00  1.000000E+01
 1.200000E+04  0.000000E+00  1.000000E+01
 1.400000E+04  0.000000E+00  1.000000E+01
 1.600000E+04  0.000000E+00  1.000000E+01
 1.800000E+04  0.000000E+00  1.000000E+01
 2.000000E+04  0.000000E+00  1.000000E+01
 0.000000E+00  1.000000E+00  1.000000E+01
 2.000000E+03  1.000000E+00  1.000000E+01
 4.000000E+03  1.000000E+00  1.000000E+01
 6.000000E+03  1.000000E+00  1.000000E+01
 8.000000E+03  1.000000E+00  1.000000E+01
 1.000000E+04  1.000000E+00  1.000000E+01
 1.200000E+04  1.000000E+00  1.000000E+01
 1.400000E+04  1.000000E+00  1.000000E+01
 1.600000E+04  1.000000E+00  1.000000E+01
 1.800000E+04  1.000000E+00  1.000000E+01
 2.000000E+04  1.000000E+00  1.000000E+01
 0.000000E+00  0.000000E+00  1.500000E+01
 2.000000E+03  0.000000E+00  1.500000E+01
 4.000000E+03  0.000000E+00  1.500000E+01
 6.000000E+03  0.000000E+00  1.500000E+01
 8.000000E+03  0.000000E+00  1.500000E+01
 1.000000E+04  0.000000E+00  1.500000E+01
 1.200000E+04  0.000000E+00  1.500000E+01
 1.400000E+04  0.000000E+00  1.500000E+01
 1.600000E+04  0.000000E+00  1.500000E+01
 1.800000E+04  0.000000E+00  1.500000E+01
 2.000000E+04  0.000000E+00  1.500000E+01
 0.000000E+00  1.000000E+00  1.500000E+01
 2.000000E+03  1.000000E+00  1.500000E+01
 4.000000E+03  1.000000E+00  1.500000E+01
 6.000000E+03  1.000000E+00  1.500000E+01
 8.000000E+03  1.000000E+00  1.500000E+01
 1.000000E+04  1.000000E+00  1.500000E+01
 1.200000E+04  1.000000E+00  1.500000E+01
 1.400000E+04  1.000000E+00  1.500000E+01
 1.600000E+04  1.000000E+00  1.500000E+01
 1.800000E+04  1.000000E+00  1.500000E+01
 2.000000E+04  1.000000E+00  1.500000E+01
 0.000000E+00  0.000000E+00  2.000000E+01
 2.000000E+03  0.000000E+00  2.000000E+01
 4.000000E+03  0.000000E+00  2.000000E+01
 6.000000E+03  0.000000E+00  2.000000E+01
 8.000000E+03  0.000000E+00  2.000000E+01
 1.000000E+04  0.000000E+00  2.000000E+01
 1.200000E+04  0.000000E+00  2.000000E+01
 1.400000E+04  0.000000E+00  2.000000E+01
 1.600000E+04  0.000000E+00  2.000000E+01
 1.800000E+04  0.000000E+00  2.000000E+01
 2.000000E+04  0.000000E+00  2.000000E+01
 0.000000E+00  1.000000E+00  2.000000E+01
 2.000000E+03  1.000000E+00  2.000000E+01
 4.000000E+03  1.000000E+00  2.000000E+01
 6.000000E+03  1.000000E+00  2.000000E+01
 8.000000E+03  1.000000E+00  2.000000E+01
 1.000000E+04  1.000000E+00  2.000000E+01
 1.200000E+04  1.000000E+00  2.000000E+01
 1.400000E+04  1.000000E+00  2.000000E+01
 1.600000E+04  1.000000E+00  2.000000E+01
 1.800000E+04  1.000000E+00  2.000000E+01
 2.000000E+04  1.000000E+00  2.000000E+01
 0.000000E+00  0.000000E+00  2.500000E+01
 2.000000E+03  0.000000E+00  2.500000E+01
 4.000000E+03  0.000000E+00  2.500000E+01
 6.000000E+03  0.000000E+00  2.500000E+01
 8.000000E+03  0.000000E+00  2.500000E+01
 1.000000E+04  0.000000E+00  2.500000E+01
 1.200000E+04  0.000000E+00  2.500000E+01
 1.400000E+04  0.000000E+00  2.500000E+01
 1.600000E+04  0.000000E+00  2.500000E+01
 1.800000E+04  0.000000E+00  2.500000E+01
 2.000000E+04  0.000000E+00  2.500000E+01
 0.000000E+00  1.000000E+00  2.500000E+01
 2.000000E+03  1.000000E+00  2.500000E+01
 4.000000E+03  1.000000E+00  2.500000E+01
 6.000000E+03  1.000000E+00  2.500000E+01
 8.000000E+03  1.000000E+00  2.500000E+01
 1.000000E+04  1.000000E+00  2.500000E+01
 1.200000E+04  1.000000E+00  2.500000E+01
 1.400000E+04  1.000000E+00  2.500000E+01
 1.600000E+04  1.000000E+00  2.500000E+01
 1.800000E+04  1.000000E+00  2.500000E+01
 2.000000E+04  1.000000E+00  2.500000E+01
 0.000000E+00  0.000000E+00  3.000000E+01
 2.000000E+03  0.000000E+00  3.000000E+01
 4.000000E+03  0.000000E+00  3.000000E+01
 6.000000E+03  0.000000E+00  3.000000E+01
 8.000000E+03  0.000000E+00  3.000000E+01
 1.000000E+04  0.000000E+00  3.000000E+01
 1.200000E+04  0.000000E+00  3.000000E+01
 1.400000E+04  0.000000E+00  3.000000E+01
 1.600000E+04  0.000000E+00  3.000000E+01
 1.800000E+04  0.000000E+00  3.000000E+01
 2.000000E+04  0.000000E+00  3.000000E+01
 0.000000E+00  1.000000E+00  3.000000E+01
 2.000000E+03  1.000000E+00  3.000000E+01
 4.000000E+03  1.000000E+00  3.000000E+01
 6.000000E+03  1.000000E+00  3.000000E+01
 8.000000E+03  1.000000E+00  3.000000E+01
 1.000000E+04  1.000000E+00  3.000000E+01
 1.200000E+04  1.000000E+00  3.000000E+01
 1.400000E+04  1.000000E+00  3.000000E+01
 1.600000E+04  1.000000E+00  3.000000E+01
 1.800000E+04  1.000000E+00  3.000000E+01
 2.000000E+04  1.000000E+00  3.000000E+01
 0.000000E+00  0.000000E+00  3.500000E+01
 2.000000E+03  0.000000E+00  3.500000E+01
 4.000000E+03  0.000000E+00  3.500000E+01
 6.000000E+03  0.000000E+00  3.500000E+01
 8.000000E+03  0.000000E+00  3.500000E+01
 1.000000E+04  0.000000E+00  3.500000E+01
 1.200000E+04  0.000000E+00  3.500000E+01
 1.400000E+04  0.000000E+00  3.500000E+01
 1.600000E+04  0.000000E+00  3.500000E+01
 1.800000E+04  0.000000E+00  3.500000E+01
 2.000000E+04  0.000000E+00  3.500000E+01
 0.000000E+00  1.000000E+00  3.500000E+01
 2.000000E+03  1.000000E+00  3.500000E+01
 4.000000E+03  1.000000E+00  3.500000E+01
 6.000000E+03  1.000000E+00  3.500000E+01
 8.000000E+03  1.000000E+00  3.500000E+01
 1.000000E+04  1.000000E+00  3.500000E+01
 1.200000E+04  1.000000E+00  3.500000E+01
 1.400000E+04  1.000000E+00  3.500000E+01
 1.600000E+04  1.000000E+00  3.500000E+01
 1.800000E+04  1.000000E+00  3.500000E+01
 2.000000E+04  1.000000E+00  3.500000E+01
 0.000000E+00  0.000000E+00  4.000000E+01
 2.000000E+03  0.000000E+00  4.000000E+01
 4.000000E+03  0.000000E+00  4.000000E+01
 6.000000E+03  0.000000E+00  4.000000E+01
 8.000000E+03  0.000000E+00  4.000000E+01
 1.000000E+04  0.000000E+00  4.000000E+01
 1.200000E+04  0.000000E+00  4.000000E+01
 1.400000E+04  0.000000E+00  4.000000E+01
 1.600000E+04  0.000000E+00  4.000000E+01
 1.800000E+04  0.000000E+00  4.000000E+01
 2.000000E+04  0.000000E+00  4.000000E+01
 0.000000E+00  1.000000E+00  4.000000E+01
 2.000000E+03  1.000000E+00  4.000000E+01
 4.000000E+03  1.000000E+00  4.000000E+01
 6.000000E+03  1.000000E+00  4.000000E+01
 8.000000E+03  1.000000E+00  4.000000E+01
 1.000000E+04  1.000000E+00  4.000000E+01
 1.200000E+04  1.000000E+00  4.000000E+01
 1.400000E+04  1.000000E+00  4.000000E+01
 1.600000E+04  1.000000E+00  4.000000E+01
 1.800000E+04  1.000000E+00  4.000000E+01
 2.000000E+04  1.000000E+00  4.000000E+01
 0.000000E+00  0.000000E+00  4.500000E+01
 2.000000E+03  0.000000E+00  4.500000E+01
 4.000000E+03  0.000000E+00  4.500000E+01
 6.000000E+03  0.000000E+00  4.500000E+01
 8.000000E+03  0.000000E+00  4.500000E+01
 1.000000E+04  0.000000E+00  4.500000E+01
 1.200000E+04  0.000000E+00  4.500000E+01
 1.400000E+04  0.000000E+00  4.500000E+01
 1.600000E+04  0.000000E+00  4.500000E+01
 1.800000E+04  0.000000E+00  4.500000E+01
 2.000000E+04  0.000000E+00  4.500000E+01
 0.000000E+00  1.000000E+00  4.500000E+01
 2.000000E+03  1.000000E+00  4.500000E+01
 4.000000E+03  1.000000E+00  4.500000E+01
 6.000000E+03  1.000000E+00  4.500000E+01
 8.000000E+03  1.000000E+00  4.500000E+01
 1.000000E+04  1.000000E+00  4.500000E+01
 1.200000E+04  1.000000E+00  4.500000E+01
 1.400000E+04  1.000000E+00  4.500000E+01
 1.600000E+04  1.000000E+00  4.500000E+01
 1.800000E+04  1.000000E+00  4.500000E+01
 2.000000E+04  1.000000E+00  4.500000E+01
 0.000000E+00  0.000000E+00  5.000000E+01
 2.000000E+03  0.000000E+00  5.000000E+01
 4.000000E+03  0.000000E+00  5.000000E+01
 6.000000E+03  0.000000E+00  5.000000E+01
 8.000000E+03  0.000000E+00  5.000000E+01
 1.000000E+04  0.000000E+00  5.000000E+01
 1.200000E+04  0.000000E+00  5.000000E+01
 1.400000E+04  0.000000E+00  5.000000E+01
 1.600000E+04  0.000000E+00  5.000000E+01
 1.800000E+04  0.000000E+00  5.000000E+01
 2.000000E+04  0.000000E+00  5.000000E+01
 0.000000E+00  1.000000E+00  5.000000E+01
 2.000000E+03  1.000000E+00  5.000000E+01
 4.000000E+03  1.000000E+00  5.000000E+01
 6.000000E+03  1.000000E+00  5.000000E+01
[...]
CELL_DATA      200
SCALARS Vlx                  float 1
LOOKUP_TABLE default
 7.740543E-02  4.961484E-02  2.684941E-02  1.656402E-02  1.079282E-02  7.317717E-03  5.204229E-03  3.935624E-03  3.183359E-03  2.738515E-03
 7.740875E-02  4.961666E-02  2.685022E-02  1.656452E-02  1.079315E-02  7.317938E-03  5.204386E-03  3.935743E-03  3.183455E-03  2.738579E-03
 7.741308E-02  4.961882E-02  2.685103E-02  1.656502E-02  1.079347E-02  7.318158E-03  5.204543E-03  3.935862E-03  3.183551E-03  2.738643E-03
 7.741839E-02  4.962131E-02  2.685184E-02  1.656552E-02  1.079380E-02  7.318379E-03  5.204700E-03  3.935980E-03  3.183647E-03  2.738707E-03
 7.742470E-02  4.962414E-02  2.685265E-02  1.656602E-02  1.079412E-02  7.318599E-03  5.204857E-03  3.936099E-03  3.183743E-03  2.738771E-03
 7.743200E-02  4.962729E-02  2.685346E-02  1.656651E-02  1.079445E-02  7.318820E-03  5.205014E-03  3.936217E-03  3.183839E-03  2.738835E-03
 7.744016E-02  4.963073E-02  2.685427E-02  1.656701E-02  1.079477E-02  7.319040E-03  5.205170E-03  3.936336E-03  3.183935E-03  2.738899E-03
 7.744698E-02  4.963372E-02  2.685508E-02  1.656751E-02  1.079510E-02  7.319261E-03  5.205327E-03  3.936454E-03  3.184030E-03  2.738963E-03
 7.745231E-02  4.963622E-02  2.685589E-02  1.656801E-02  1.079542E-02  7.319481E-03  5.205484E-03  3.936573E-03  3.184126E-03  2.739027E-03
 7.745615E-02  4.963822E-02  2.685670E-02  1.656851E-02  1.079575E-02  7.319702E-03  5.205641E-03  3.936691E-03  3.184222E-03  2.739091E-03
 7.745849E-02  4.963971E-02  2.685751E-02  1.656901E-02  1.079607E-02  7.319922E-03  5.205797E-03  3.936810E-03  3.184318E-03  2.739155E-03
 7.745934E-02  4.964072E-02  2.685832E-02  1.656951E-02  1.079640E-02  7.320142E-03  5.205954E-03  3.936928E-03  3.184414E-03  2.739219E-03
 7.745871E-02  4.964122E-02  2.685913E-02  1.657001E-02  1.079672E-02  7.320363E-03  5.206111E-03  3.937047E-03  3.184510E-03  2.739283E-03
 7.745658E-02  4.964123E-02  2.685994E-02  1.657051E-02  1.079705E-02  7.320583E-03  5.206267E-03  3.937165E-03  3.184605E-03  2.739347E-03
 7.745311E-02  4.964079E-02  2.686075E-02  1.657101E-02  1.079737E-02  7.320803E-03  5.206424E-03  3.937284E-03  3.184701E-03  2.739411E-03
 7.745047E-02  4.964063E-02  2.686156E-02  1.657151E-02  1.079770E-02  7.321024E-03  5.206581E-03  3.937402E-03  3.184797E-03  2.739475E-03
 7.744883E-02  4.964080E-02  2.686237E-02  1.657201E-02  1.079802E-02  7.321244E-03  5.206737E-03  3.937521E-03  3.184893E-03  2.739539E-03
 7.744817E-02  4.964130E-02  2.686318E-02  1.657250E-02  1.079835E-02  7.321464E-03  5.206894E-03  3.937639E-03  3.184989E-03  2.739603E-03
 7.744851E-02  4.964213E-02  2.686399E-02  1.657300E-02  1.079867E-02  7.321685E-03  5.207051E-03  3.937758E-03  3.185084E-03  2.739667E-03
 7.744985E-02  4.964330E-02  2.686480E-02  1.657350E-02  1.079900E-02  7.321905E-03  5.207207E-03  3.937876E-03  3.185180E-03  2.739731E-03


SCALARS Vly                  float 1
LOOKUP_TABLE default
 0.000000E+00  0.000000E+00  0.000000E+00  0.000000E+00  0.000000E+00  0.000000E+00  0.000000E+00  0.000000E+00  0.000000E+00  0.000000E+00
 0.000000E+00  0.000000E+00  0.000000E+00  0.000000E+00  0.000000E+00  0.000000E+00  0.000000E+00  0.000000E+00  0.000000E+00  0.000000E+00
 0.000000E+00  0.000000E+00  0.000000E+00  0.000000E+00  0.000000E+00  0.000000E+00  0.000000E+00  0.000000E+00  0.000000E+00  0.000000E+00
 0.000000E+00  0.000000E+00  0.000000E+00  0.000000E+00  0.000000E+00  0.000000E+00  0.000000E+00  0.000000E+00  0.000000E+00  0.000000E+00
 0.000000E+00  0.000000E+00  0.000000E+00  0.000000E+00  0.000000E+00  0.000000E+00  0.000000E+00  0.000000E+00  0.000000E+00  0.000000E+00
 0.000000E+00  0.000000E+00  0.000000E+00  0.000000E+00  0.000000E+00  0.000000E+00  0.000000E+00  0.000000E+00  0.000000E+00  0.000000E+00
 0.000000E+00  0.000000E+00  0.000000E+00  0.000000E+00  0.000000E+00  0.000000E+00  0.000000E+00  0.000000E+00  0.000000E+00  0.000000E+00
 0.000000E+00  0.000000E+00  0.000000E+00  0.000000E+00  0.000000E+00  0.000000E+00  0.000000E+00  0.000000E+00  0.000000E+00  0.000000E+00
 0.000000E+00  0.000000E+00  0.000000E+00  0.000000E+00  0.000000E+00  0.000000E+00  0.000000E+00  0.000000E+00  0.000000E+00  0.000000E+00
 0.000000E+00  0.000000E+00  0.000000E+00  0.000000E+00  0.000000E+00  0.000000E+00  0.000000E+00  0.000000E+00  0.000000E+00  0.000000E+00
 0.000000E+00  0.000000E+00  0.000000E+00  0.000000E+00  0.000000E+00  0.000000E+00  0.000000E+00  0.000000E+00  0.000000E+00  0.000000E+00
 0.000000E+00  0.000000E+00  0.000000E+00  0.000000E+00  0.000000E+00  0.000000E+00  0.000000E+00  0.000000E+00  0.000000E+00  0.000000E+00
 0.000000E+00  0.000000E+00  0.000000E+00  0.000000E+00  0.000000E+00  0.000000E+00  0.000000E+00  0.000000E+00  0.000000E+00  0.000000E+00
 0.000000E+00  0.000000E+00  0.000000E+00  0.000000E+00  0.000000E+00  0.000000E+00  0.000000E+00  0.000000E+00  0.000000E+00  0.000000E+00
 0.000000E+00  0.000000E+00  0.000000E+00  0.000000E+00  0.000000E+00  0.000000E+00  0.000000E+00  0.000000E+00  0.000000E+00  0.000000E+00
 0.000000E+00  0.000000E+00  0.000000E+00  0.000000E+00  0.000000E+00  0.000000E+00  0.000000E+00  0.000000E+00  0.000000E+00  0.000000E+00
 0.000000E+00  0.000000E+00  0.000000E+00  0.000000E+00  0.000000E+00  0.000000E+00  0.000000E+00  0.000000E+00  0.000000E+00  0.000000E+00
 0.000000E+00  0.000000E+00  0.000000E+00  0.000000E+00  0.000000E+00  0.000000E+00  0.000000E+00  0.000000E+00  0.000000E+00  0.000000E+00
 0.000000E+00  0.000000E+00  0.000000E+00  0.000000E+00  0.000000E+00  0.000000E+00  0.000000E+00  0.000000E+00  0.000000E+00  0.000000E+00
 0.000000E+00  0.000000E+00  0.000000E+00  0.000000E+00  0.000000E+00  0.000000E+00  0.000000E+00  0.000000E+00  0.000000E+00  0.000000E+00


SCALARS Vlz                  float 1
LOOKUP_TABLE default
-3.977011E-04 -6.791274E-09  1.414700E-08  1.134501E-08  8.359527E-09  5.618592E-09  3.403999E-09  1.819053E-09  8.252790E-10 -6.509765E-10
-5.965672E-04 -1.022480E-08  2.047729E-08  1.642101E-08  1.210093E-08  8.132641E-09  4.927666E-09  2.634439E-09  1.194265E-09 -9.430742E-10
-9.943177E-04 -1.629640E-08  3.239463E-08  2.597887E-08  1.914607E-08  1.286760E-08  7.796016E-09  4.169213E-09  1.887984E-09 -1.492712E-09
-1.392107E-03 -1.994738E-08  4.282825E-08  3.434728E-08  2.531436E-08  1.701402E-08  1.030550E-08  5.513099E-09  2.494273E-09 -1.973261E-09
-1.789940E-03 -1.952257E-08  5.177824E-08  4.152344E-08  3.060497E-08  2.056932E-08  1.245784E-08  6.666207E-09  3.012918E-09 -2.384046E-09
-2.187822E-03 -1.336792E-08  5.924163E-08  4.750710E-08  3.501630E-08  2.353476E-08  1.425335E-08  7.626962E-09  3.444668E-09 -2.725534E-09
-2.088379E-03  6.457970E-11  6.521566E-08  5.229810E-08  3.854754E-08  2.591099E-08  1.568957E-08  8.395222E-09  3.791496E-09 -2.999913E-09
-1.491596E-03  2.037175E-08  6.970208E-08  5.589596E-08  4.119945E-08  2.769549E-08  1.676874E-08  8.972079E-09  4.051443E-09 -3.204672E-09
-8.948263E-04  4.519190E-08  7.270112E-08  5.830136E-08  4.297051E-08  2.888456E-08  1.748965E-08  9.357590E-09  4.224486E-09 -3.340229E-09
-2.980633E-04  7.204088E-08  7.421017E-08  5.951228E-08  4.386133E-08  2.948187E-08  1.785135E-08  9.552281E-09  4.311106E-09 -3.407644E-09
 2.986998E-04  9.842277E-08  7.422914E-08  5.952619E-08  4.387052E-08  2.948900E-08  1.785643E-08  9.556206E-09  4.309903E-09 -3.407009E-09
 8.954705E-04  1.218508E-07  7.275575E-08  5.834233E-08  4.299748E-08  2.890296E-08  1.750290E-08  9.368250E-09  4.223052E-09 -3.338914E-09
 1.492257E-03  1.398456E-07  6.978983E-08  5.596146E-08  4.124184E-08  2.772395E-08  1.678881E-08  8.986751E-09  4.051792E-09 -3.201443E-09
 2.089068E-03  1.499202E-07  6.532793E-08  5.238236E-08  3.860301E-08  2.595164E-08  1.571574E-08  8.413061E-09  3.793933E-09 -2.996024E-09
 2.188534E-03  1.497128E-07  5.936908E-08  4.760383E-08  3.507985E-08  2.358527E-08  1.428218E-08  7.646641E-09  3.448591E-09 -2.723266E-09
 1.790640E-03  1.387967E-07  5.191284E-08  4.162721E-08  3.067232E-08  2.062202E-08  1.248750E-08  6.685635E-09  3.015993E-09 -2.380836E-09
 1.392742E-03  1.186867E-07  4.295866E-08  3.444947E-08  2.538256E-08  1.706456E-08  1.033443E-08  5.532864E-09  2.496562E-09 -1.969356E-09
 9.948352E-04  9.103628E-08  3.250818E-08  2.606921E-08  1.920817E-08  1.291371E-08  7.819322E-09  4.187974E-09  1.889105E-09 -1.490183E-09
 5.969146E-04  5.750193E-08  2.055851E-08  1.648733E-08  1.214751E-08  8.167295E-09  4.943043E-09  2.649721E-09  1.194146E-09 -9.423514E-10
 3.979502E-04  3.947031E-08  1.420849E-08  1.139562E-08  8.395564E-09  5.645423E-09  3.415765E-09  1.832329E-09  8.253555E-10 -6.513416E-10


SCALARS Vgx                  float 1
LOOKUP_TABLE default
 0.000000E+00  0.000000E+00  0.000000E+00  0.000000E+00  0.000000E+00  0.000000E+00  0.000000E+00  0.000000E+00  0.000000E+00  0.000000E+00
 0.000000E+00  0.000000E+00  0.000000E+00  0.000000E+00  0.000000E+00  0.000000E+00  0.000000E+00  0.000000E+00  0.000000E+00  0.000000E+00
 0.000000E+00  0.000000E+00  0.000000E+00  0.000000E+00  0.000000E+00  0.000000E+00  0.000000E+00  0.000000E+00  0.000000E+00  0.000000E+00
 0.000000E+00  0.000000E+00  0.000000E+00  0.000000E+00  0.000000E+00  0.000000E+00  0.000000E+00  0.000000E+00  0.000000E+00  0.000000E+00
 0.000000E+00  0.000000E+00  0.000000E+00  0.000000E+00  0.000000E+00  0.000000E+00  0.000000E+00  0.000000E+00  0.000000E+00  0.000000E+00
 0.000000E+00  0.000000E+00  0.000000E+00  0.000000E+00  0.000000E+00  0.000000E+00  0.000000E+00  0.000000E+00  0.000000E+00  0.000000E+00
 0.000000E+00  0.000000E+00  0.000000E+00  0.000000E+00  0.000000E+00  0.000000E+00  0.000000E+00  0.000000E+00  0.000000E+00  0.000000E+00
 0.000000E+00  0.000000E+00  0.000000E+00  0.000000E+00  0.000000E+00  0.000000E+00  0.000000E+00  0.000000E+00  0.000000E+00  0.000000E+00
 0.000000E+00  0.000000E+00  0.000000E+00  0.000000E+00  0.000000E+00  0.000000E+00  0.000000E+00  0.000000E+00  0.000000E+00  0.000000E+00
 0.000000E+00  0.000000E+00  0.000000E+00  0.000000E+00  0.000000E+00  0.000000E+00  0.000000E+00  0.000000E+00  0.000000E+00  0.000000E+00
 0.000000E+00  0.000000E+00  0.000000E+00  0.000000E+00  0.000000E+00  0.000000E+00  0.000000E+00  0.000000E+00  0.000000E+00  0.000000E+00
 0.000000E+00  0.000000E+00  0.000000E+00  0.000000E+00  0.000000E+00  0.000000E+00  0.000000E+00  0.000000E+00  0.000000E+00  0.000000E+00
 0.000000E+00  0.000000E+00  0.000000E+00  0.000000E+00  0.000000E+00  0.000000E+00  0.000000E+00  0.000000E+00  0.000000E+00  0.000000E+00
 0.000000E+00  0.000000E+00  0.000000E+00  0.000000E+00  0.000000E+00  0.000000E+00  0.000000E+00  0.000000E+00  0.000000E+00  0.000000E+00
 0.000000E+00  0.000000E+00  0.000000E+00  0.000000E+00  0.000000E+00  0.000000E+00  0.000000E+00  0.000000E+00  0.000000E+00  0.000000E+00
 0.000000E+00  0.000000E+00  0.000000E+00  0.000000E+00  0.000000E+00  0.000000E+00  0.000000E+00  0.000000E+00  0.000000E+00  0.000000E+00
 0.000000E+00  0.000000E+00  0.000000E+00  0.000000E+00  0.000000E+00  0.000000E+00  0.000000E+00  0.000000E+00  0.000000E+00  0.000000E+00
 0.000000E+00  0.000000E+00  0.000000E+00  0.000000E+00  0.000000E+00  0.000000E+00  0.000000E+00  0.000000E+00  0.000000E+00  0.000000E+00
 0.000000E+00  0.000000E+00  0.000000E+00  0.000000E+00  0.000000E+00  0.000000E+00  0.000000E+00  0.000000E+00  0.000000E+00  0.000000E+00
 0.000000E+00  0.000000E+00  0.000000E+00  0.000000E+00  0.000000E+00  0.000000E+00  0.000000E+00  0.000000E+00  0.000000E+00  0.000000E+00


SCALARS Vgy                  float 1
LOOKUP_TABLE default
 0.000000E+00  0.000000E+00  0.000000E+00  0.000000E+00  0.000000E+00  0.000000E+00  0.000000E+00  0.000000E+00  0.000000E+00  0.000000E+00
 0.000000E+00  0.000000E+00  0.000000E+00  0.000000E+00  0.000000E+00  0.000000E+00  0.000000E+00  0.000000E+00  0.000000E+00  0.000000E+00
 0.000000E+00  0.000000E+00  0.000000E+00  0.000000E+00  0.000000E+00  0.000000E+00  0.000000E+00  0.000000E+00  0.000000E+00  0.000000E+00
 0.000000E+00  0.000000E+00  0.000000E+00  0.000000E+00  0.000000E+00  0.000000E+00  0.000000E+00  0.000000E+00  0.000000E+00  0.000000E+00
 0.000000E+00  0.000000E+00  0.000000E+00  0.000000E+00  0.000000E+00  0.000000E+00  0.000000E+00  0.000000E+00  0.000000E+00  0.000000E+00
 0.000000E+00  0.000000E+00  0.000000E+00  0.000000E+00  0.000000E+00  0.000000E+00  0.000000E+00  0.000000E+00  0.000000E+00  0.000000E+00
 0.000000E+00  0.000000E+00  0.000000E+00  0.000000E+00  0.000000E+00  0.000000E+00  0.000000E+00  0.000000E+00  0.000000E+00  0.000000E+00
 0.000000E+00  0.000000E+00  0.000000E+00  0.000000E+00  0.000000E+00  0.000000E+00  0.000000E+00  0.000000E+00  0.000000E+00  0.000000E+00
 0.000000E+00  0.000000E+00  0.000000E+00  0.000000E+00  0.000000E+00  0.000000E+00  0.000000E+00  0.000000E+00  0.000000E+00  0.000000E+00
 0.000000E+00  0.000000E+00  0.000000E+00  0.000000E+00  0.000000E+00  0.000000E+00  0.000000E+00  0.000000E+00  0.000000E+00  0.000000E+00
 0.000000E+00  0.000000E+00  0.000000E+00  0.000000E+00  0.000000E+00  0.000000E+00  0.000000E+00  0.000000E+00  0.000000E+00  0.000000E+00
 0.000000E+00  0.000000E+00  0.000000E+00  0.000000E+00  0.000000E+00  0.000000E+00  0.000000E+00  0.000000E+00  0.000000E+00  0.000000E+00
 0.000000E+00  0.000000E+00  0.000000E+00  0.000000E+00  0.000000E+00  0.000000E+00  0.000000E+00  0.000000E+00  0.000000E+00  0.000000E+00
 0.000000E+00  0.000000E+00  0.000000E+00  0.000000E+00  0.000000E+00  0.000000E+00  0.000000E+00  0.000000E+00  0.000000E+00  0.000000E+00
 0.000000E+00  0.000000E+00  0.000000E+00  0.000000E+00  0.000000E+00  0.000000E+00  0.000000E+00  0.000000E+00  0.000000E+00  0.000000E+00
 0.000000E+00  0.000000E+00  0.000000E+00  0.000000E+00  0.000000E+00  0.000000E+00  0.000000E+00  0.000000E+00  0.000000E+00  0.000000E+00
 0.000000E+00  0.000000E+00  0.000000E+00  0.000000E+00  0.000000E+00  0.000000E+00  0.000000E+00  0.000000E+00  0.000000E+00  0.000000E+00
 0.000000E+00  0.000000E+00  0.000000E+00  0.000000E+00  0.000000E+00  0.000000E+00  0.000000E+00  0.000000E+00  0.000000E+00  0.000000E+00
 0.000000E+00  0.000000E+00  0.000000E+00  0.000000E+00  0.000000E+00  0.000000E+00  0.000000E+00  0.000000E+00  0.000000E+00  0.000000E+00
 0.000000E+00  0.000000E+00  0.000000E+00  0.000000E+00  0.000000E+00  0.000000E+00  0.000000E+00  0.000000E+00  0.000000E+00  0.000000E+00


SCALARS Vgz                  float 1
LOOKUP_TABLE default
 0.000000E+00  0.000000E+00  0.000000E+00  0.000000E+00  0.000000E+00  0.000000E+00  0.000000E+00  0.000000E+00  0.000000E+00  0.000000E+00
 0.000000E+00  0.000000E+00  0.000000E+00  0.000000E+00  0.000000E+00  0.000000E+00  0.000000E+00  0.000000E+00  0.000000E+00  0.000000E+00
 0.000000E+00  0.000000E+00  0.000000E+00  0.000000E+00  0.000000E+00  0.000000E+00  0.000000E+00  0.000000E+00  0.000000E+00  0.000000E+00
 0.000000E+00  0.000000E+00  0.000000E+00  0.000000E+00  0.000000E+00  0.000000E+00  0.000000E+00  0.000000E+00  0.000000E+00  0.000000E+00
 0.000000E+00  0.000000E+00  0.000000E+00  0.000000E+00  0.000000E+00  0.000000E+00  0.000000E+00  0.000000E+00  0.000000E+00  0.000000E+00
 0.000000E+00  0.000000E+00  0.000000E+00  0.000000E+00  0.000000E+00  0.000000E+00  0.000000E+00  0.000000E+00  0.000000E+00  0.000000E+00
 0.000000E+00  0.000000E+00  0.000000E+00  0.000000E+00  0.000000E+00  0.000000E+00  0.000000E+00  0.000000E+00  0.000000E+00  0.000000E+00
 0.000000E+00  0.000000E+00  0.000000E+00  0.000000E+00  0.000000E+00  0.000000E+00  0.000000E+00  0.000000E+00  0.000000E+00  0.000000E+00
 0.000000E+00  0.000000E+00  0.000000E+00  0.000000E+00  0.000000E+00  0.000000E+00  0.000000E+00  0.000000E+00  0.000000E+00  0.000000E+00
 0.000000E+00  0.000000E+00  0.000000E+00  0.000000E+00  0.000000E+00  0.000000E+00  0.000000E+00  0.000000E+00  0.000000E+00  0.000000E+00
 0.000000E+00  0.000000E+00  0.000000E+00  0.000000E+00  0.000000E+00  0.000000E+00  0.000000E+00  0.000000E+00  0.000000E+00  0.000000E+00
 0.000000E+00  0.000000E+00  0.000000E+00  0.000000E+00  0.000000E+00  0.000000E+00  0.000000E+00  0.000000E+00  0.000000E+00  0.000000E+00
 0.000000E+00  0.000000E+00  0.000000E+00  0.000000E+00  0.000000E+00  0.000000E+00  0.000000E+00  0.000000E+00  0.000000E+00  0.000000E+00
 0.000000E+00  0.000000E+00  0.000000E+00  0.000000E+00  0.000000E+00  0.000000E+00  0.000000E+00  0.000000E+00  0.000000E+00  0.000000E+00
 0.000000E+00  0.000000E+00  0.000000E+00  0.000000E+00  0.000000E+00  0.000000E+00  0.000000E+00  0.000000E+00  0.000000E+00  0.000000E+00
 0.000000E+00  0.000000E+00  0.000000E+00  0.000000E+00  0.000000E+00  0.000000E+00  0.000000E+00  0.000000E+00  0.000000E+00  0.000000E+00
 0.000000E+00  0.000000E+00  0.000000E+00  0.000000E+00  0.000000E+00  0.000000E+00  0.000000E+00  0.000000E+00  0.000000E+00  0.000000E+00
 0.000000E+00  0.000000E+00  0.000000E+00  0.000000E+00  0.000000E+00  0.000000E+00  0.000000E+00  0.000000E+00  0.000000E+00  0.000000E+00
 0.000000E+00  0.000000E+00  0.000000E+00  0.000000E+00  0.000000E+00  0.000000E+00  0.000000E+00  0.000000E+00  0.000000E+00  0.000000E+00
 0.000000E+00  0.000000E+00  0.000000E+00  0.000000E+00  0.000000E+00  0.000000E+00  0.000000E+00  0.000000E+00  0.000000E+00  0.000000E+00


SCALARS Material_ID          int 1
LOOKUP_TABLE default
  1
  1
  1
  1
  1
  1
  1
  1
  1
  1
  1
  1
  1
  1
  1
  1
  1
  1
  1
  1
  1
  1
  1
  1
  1
  1
  1
  1
  1
  1
  1
  1
  1
  1
  1
  1
  1
  1
  1
  1
  1
  1
  1
  1
  1
  1
  1
  1
  1
  1
  1
  1
  1
  1
  1
  1
  1
  1
  1
  1
  1
  1
  1
  1
  1
  1
  1
  1
  1
  1
  1
  1
  1
  1
  1
  1
  1
  1
  1
  1
  1
  1
  1
  1
  1
  1
  1
  1
  1
  1
  1
  1
  1
  1
  1
  1
  1
  1
  1
  1
  1
  1
  1
  1
  1
  1
  1
  1
  1
  1
  1
  1
  1
  1
  1
  1
  1
  1
  1
  1
  1
  1
  1
  1
  1
  1
  1
  1
  1
  1
  1
  1
  1
  1
  1
  1
  1
  1
  1
  1
  1
  1
  1
  1
  1
  1
  1
  1
  1
  1
  1
  1
  1
  1
  1
  1
  1
  1
  1
  1
  1
  1
  1
  1
  1
  1
  1
  1
  1
  1
  1
  1
  1
  1
  1
  1
  1
  1
  1
  1
  1
  1
  1
  1
  1
  1
  1
  1
  1
  1
  1
  1
  1
  1
  1
  1
  1
  1
  1
  1


