# vtk DataFile Version 2.0
PFLOTRAN output
ASCII
DATASET UNSTRUCTURED_GRID
POINTS          462 float
 0.000000E+00  0.000000E+00  0.000000E+00
 2.000000E+03  0.000000E+00  0.000000E+00
 4.000000E+03  0.000000E+00  0.000000E+00
 6.000000E+03  0.000000E+00  0.000000E+00
 8.000000E+03  0.000000E+00  0.000000E+00
 1.000000E+04  0.000000E+00  0.000000E+00
 1.200000E+04  0.000000E+00  0.000000E+00
 1.400000E+04  0.000000E+00  0.000000E+00
 1.600000E+04  0.000000E+00  0.000000E+00
 1.800000E+04  0.000000E+00  0.000000E+00
 2.000000E+04  0.000000E+00  0.000000E+00
 0.000000E+00  1.000000E+00  0.000000E+00
 2.000000E+03  1.000000E+00  0.000000E+00
 4.000000E+03  1.000000E+00  0.000000E+00
 6.000000E+03  1.000000E+00  0.000000E+00
 8.000000E+03  1.000000E+00  0.000000E+00
 1.000000E+04  1.000000E+00  0.000000E+00
 1.200000E+04  1.000000E+00  0.000000E+00
 1.400000E+04  1.000000E+00  0.000000E+00
 1.600000E+04  1.000000E+00  0.000000E+00
 1.800000E+04  1.000000E+00  0.000000E+00
 2.000000E+04  1.000000E+00  0.000000E+00
 0.000000E+00  0.000000E+00  5.000000E+00
 2.000000E+03  0.000000E+00  5.000000E+00
 4.000000E+03  0.000000E+00  5.000000E+00
 6.000000E+03  0.000000E+00  5.000000E+00
 8.000000E+03  0.000000E+00  5.000000E+00
 1.000000E+04  0.000000E+00  5.000000E+00
 1.200000E+04  0.000000E+00  5.000000E+00
 1.400000E+04  0.000000E+00  5.000000E+00
 1.600000E+04  0.000000E+00  5.000000E+00
 1.800000E+04  0.000000E+00  5.000000E+00
 2.000000E+04  0.000000E+00  5.000000E+00
 0.000000E+00  1.000000E+00  5.000000E+00
 2.000000E+03  1.000000E+00  5.000000E+00
 4.000000E+03  1.000000E+00  5.000000E+00
 6.000000E+03  1.000000E+00  5.000000E+00
 8.000000E+03  1.000000E+00  5.000000E+00
 1.000000E+04  1.000000E+00  5.000000E+00
 1.200000E+04  1.000000E+00  5.000000E+00
 1.400000E+04  1.000000E+00  5.000000E+00
 1.600000E+04  1.000000E+00  5.000000E+00
 1.800000E+04  1.000000E+00  5.000000E+00
 2.000000E+04  1.000000E+00  5.000000E+00
 0.000000E+00  0.000000E+00  1.000000E+01
 2.000000E+03  0.000000E+00  1.000000E+01
 4.000000E+03  0.000000E+00  1.000000E+01
 6.000000E+03  0.000000E+00  1.000000E+01
 8.000000E+03  0.000000E+00  1.000000E+01
 1.000000E+04  0.000000E+00  1.000000E+01
 1.200000E+04  0.000000E+00  1.000000E+01
 1.400000E+04  0.000000E+00  1.000000E+01
 1.600000E+04  0.000000E+00  1.000000E+01
 1.800000E+04  0.000000E+00  1.000000E+01
 2.000000E+04  0.000000E+00  1.000000E+01
 0.000000E+00  1.000000E+00  1.000000E+01
 2.000000E+03  1.000000E+00  1.000000E+01
 4.000000E+03  1.000000E+00  1.000000E+01
 6.000000E+03  1.000000E+00  1.000000E+01
 8.000000E+03  1.000000E+00  1.000000E+01
 1.000000E+04  1.000000E+00  1.000000E+01
 1.200000E+04  1.000000E+00  1.000000E+01
 1.400000E+04  1.000000E+00  1.000000E+01
 1.600000E+04  1.000000E+00  1.000000E+01
 1.800000E+04  1.000000E+00  1.000000E+01
 2.000000E+04  1.000000E+00  1.000000E+01
 0.000000E+00  0.000000E+00  1.500000E+01
 2.000000E+03  0.000000E+00  1.500000E+01
 4.000000E+03  0.000000E+00  1.500000E+01
 6.000000E+03  0.000000E+00  1.500000E+01
 8.000000E+03  0.000000E+00  1.500000E+01
 1.000000E+04  0.000000E+00  1.500000E+01
 1.200000E+04  0.000000E+00  1.500000E+01
 1.400000E+04  0.000000E+00  1.500000E+01
 1.600000E+04  0.000000E+00  1.500000E+01
 1.800000E+04  0.000000E+00  1.500000E+01
 2.000000E+04  0.000000E+00  1.500000E+01
 0.000000E+00  1.000000E+00  1.500000E+01
 2.000000E+03  1.000000E+00  1.500000E+01
 4.000000E+03  1.000000E+00  1.500000E+01
 6.000000E+03  1.000000E+00  1.500000E+01
 8.000000E+03  1.000000E+00  1.500000E+01
 1.000000E+04  1.000000E+00  1.500000E+01
 1.200000E+04  1.000000E+00  1.500000E+01
 1.400000E+04  1.000000E+00  1.500000E+01
 1.600000E+04  1.000000E+00  1.500000E+01
 1.800000E+04  1.000000E+00  1.500000E+01
 2.000000E+04  1.000000E+00  1.500000E+01
 0.000000E+00  0.000000E+00  2.000000E+01
 2.000000E+03  0.000000E+00  2.000000E+01
 4.000000E+03  0.000000E+00  2.000000E+01
 6.000000E+03  0.000000E+00  2.000000E+01
 8.000000E+03  0.000000E+00  2.000000E+01
 1.000000E+04  0.000000E+00  2.000000E+01
 1.200000E+04  0.000000E+00  2.000000E+01
 1.400000E+04  0.000000E+00  2.000000E+01
 1.600000E+04  0.000000E+00  2.000000E+01
 1.800000E+04  0.000000E+00  2.000000E+01
 2.000000E+04  0.000000E+00  2.000000E+01
 0.000000E+00  1.000000E+00  2.000000E+01
 2.000000E+03  1.000000E+00  2.000000E+01
 4.000000E+03  1.000000E+00  2.000000E+01
 6.000000E+03  1.000000E+00  2.000000E+01
 8.000000E+03  1.000000E+00  2.000000E+01
 1.000000E+04  1.000000E+00  2.000000E+01
 1.200000E+04  1.000000E+00  2.000000E+01
 1.400000E+04  1.000000E+00  2.000000E+01
 1.600000E+04  1.000000E+00  2.000000E+01
 1.800000E+04  1.000000E+00  2.000000E+01
 2.000000E+04  1.000000E+00  2.000000E+01
 0.000000E+00  0.000000E+00  2.500000E+01
 2.000000E+03  0.000000E+00  2.500000E+01
 4.000000E+03  0.000000E+00  2.500000E+01
 6.000000E+03  0.000000E+00  2.500000E+01
 8.000000E+03  0.000000E+00  2.500000E+01
 1.000000E+04  0.000000E+00  2.500000E+01
 1.200000E+04  0.000000E+00  2.500000E+01
 1.400000E+04  0.000000E+00  2.500000E+01
 1.600000E+04  0.000000E+00  2.500000E+01
 1.800000E+04  0.000000E+00  2.500000E+01
 2.000000E+04  0.000000E+00  2.500000E+01
 0.000000E+00  1.000000E+00  2.500000E+01
 2.000000E+03  1.000000E+00  2.500000E+01
 4.000000E+03  1.000000E+00  2.500000E+01
 6.000000E+03  1.000000E+00  2.500000E+01
 8.000000E+03  1.000000E+00  2.500000E+01
 1.000000E+04  1.000000E+00  2.500000E+01
 1.200000E+04  1.000000E+00  2.500000E+01
 1.400000E+04  1.000000E+00  2.500000E+01
 1.600000E+04  1.000000E+00  2.500000E+01
 1.800000E+04  1.000000E+00  2.500000E+01
 2.000000E+04  1.000000E+00  2.500000E+01
 0.000000E+00  0.000000E+00  3.000000E+01
 2.000000E+03  0.000000E+00  3.000000E+01
 4.000000E+03  0.000000E+00  3.000000E+01
 6.000000E+03  0.000000E+00  3.000000E+01
 8.000000E+03  0.000000E+00  3.000000E+01
 1.000000E+04  0.000000E+00  3.000000E+01
 1.200000E+04  0.000000E+00  3.000000E+01
 1.400000E+04  0.000000E+00  3.000000E+01
 1.600000E+04  0.000000E+00  3.000000E+01
 1.800000E+04  0.000000E+00  3.000000E+01
 2.000000E+04  0.000000E+00  3.000000E+01
 0.000000E+00  1.000000E+00  3.000000E+01
 2.000000E+03  1.000000E+00  3.000000E+01
 4.000000E+03  1.000000E+00  3.000000E+01
 6.000000E+03  1.000000E+00  3.000000E+01
 8.000000E+03  1.000000E+00  3.000000E+01
 1.000000E+04  1.000000E+00  3.000000E+01
 1.200000E+04  1.000000E+00  3.000000E+01
 1.400000E+04  1.000000E+00  3.000000E+01
 1.600000E+04  1.000000E+00  3.000000E+01
 1.800000E+04  1.000000E+00  3.000000E+01
 2.000000E+04  1.000000E+00  3.000000E+01
 0.000000E+00  0.000000E+00  3.500000E+01
 2.000000E+03  0.000000E+00  3.500000E+01
 4.000000E+03  0.000000E+00  3.500000E+01
 6.000000E+03  0.000000E+00  3.500000E+01
 8.000000E+03  0.000000E+00  3.500000E+01
 1.000000E+04  0.000000E+00  3.500000E+01
 1.200000E+04  0.000000E+00  3.500000E+01
 1.400000E+04  0.000000E+00  3.500000E+01
 1.600000E+04  0.000000E+00  3.500000E+01
 1.800000E+04  0.000000E+00  3.500000E+01
 2.000000E+04  0.000000E+00  3.500000E+01
 0.000000E+00  1.000000E+00  3.500000E+01
 2.000000E+03  1.000000E+00  3.500000E+01
 4.000000E+03  1.000000E+00  3.500000E+01
 6.000000E+03  1.000000E+00  3.500000E+01
 8.000000E+03  1.000000E+00  3.500000E+01
 1.000000E+04  1.000000E+00  3.500000E+01
 1.200000E+04  1.000000E+00  3.500000E+01
 1.400000E+04  1.000000E+00  3.500000E+01
 1.600000E+04  1.000000E+00  3.500000E+01
 1.800000E+04  1.000000E+00  3.500000E+01
 2.000000E+04  1.000000E+00  3.500000E+01
 0.000000E+00  0.000000E+00  4.000000E+01
 2.000000E+03  0.000000E+00  4.000000E+01
 4.000000E+03  0.000000E+00  4.000000E+01
 6.000000E+03  0.000000E+00  4.000000E+01
 8.000000E+03  0.000000E+00  4.000000E+01
 1.000000E+04  0.000000E+00  4.000000E+01
 1.200000E+04  0.000000E+00  4.000000E+01
 1.400000E+04  0.000000E+00  4.000000E+01
 1.600000E+04  0.000000E+00  4.000000E+01
 1.800000E+04  0.000000E+00  4.000000E+01
 2.000000E+04  0.000000E+00  4.000000E+01
 0.000000E+00  1.000000E+00  4.000000E+01
 2.000000E+03  1.000000E+00  4.000000E+01
 4.000000E+03  1.000000E+00  4.000000E+01
 6.000000E+03  1.000000E+00  4.000000E+01
 8.000000E+03  1.000000E+00  4.000000E+01
 1.000000E+04  1.000000E+00  4.000000E+01
 1.200000E+04  1.000000E+00  4.000000E+01
 1.400000E+04  1.000000E+00  4.000000E+01
 1.600000E+04  1.000000E+00  4.000000E+01
 1.800000E+04  1.000000E+00  4.000000E+01
 2.000000E+04  1.000000E+00  4.000000E+01
 0.000000E+00  0.000000E+00  4.500000E+01
 2.000000E+03  0.000000E+00  4.500000E+01
 4.000000E+03  0.000000E+00  4.500000E+01
 6.000000E+03  0.000000E+00  4.500000E+01
 8.000000E+03  0.000000E+00  4.500000E+01
 1.000000E+04  0.000000E+00  4.500000E+01
 1.200000E+04  0.000000E+00  4.500000E+01
 1.400000E+04  0.000000E+00  4.500000E+01
 1.600000E+04  0.000000E+00  4.500000E+01
 1.800000E+04  0.000000E+00  4.500000E+01
 2.000000E+04  0.000000E+00  4.500000E+01
 0.000000E+00  1.000000E+00  4.500000E+01
 2.000000E+03  1.000000E+00  4.500000E+01
 4.000000E+03  1.000000E+00  4.500000E+01
 6.000000E+03  1.000000E+00  4.500000E+01
 8.000000E+03  1.000000E+00  4.500000E+01
 1.000000E+04  1.000000E+00  4.500000E+01
 1.200000E+04  1.000000E+00  4.500000E+01
 1.400000E+04  1.000000E+00  4.500000E+01
 1.600000E+04  1.000000E+00  4.500000E+01
 1.800000E+04  1.000000E+00  4.500000E+01
 2.000000E+04  1.000000E+00  4.500000E+01
 0.000000E+00  0.000000E+00  5.000000E+01
 2.000000E+03  0.000000E+00  5.000000E+01
 4.000000E+03  0.000000E+00  5.000000E+01
 6.000000E+03  0.000000E+00  5.000000E+01
 8.000000E+03  0.000000E+00  5.000000E+01
 1.000000E+04  0.000000E+00  5.000000E+01
 1.200000E+04  0.000000E+00  5.000000E+01
 1.400000E+04  0.000000E+00  5.000000E+01
 1.600000E+04  0.000000E+00  5.000000E+01
 1.800000E+04  0.000000E+00  5.000000E+01
 2.000000E+04  0.000000E+00  5.000000E+01
 0.000000E+00  1.000000E+00  5.000000E+01
 2.000000E+03  1.000000E+00  5.000000E+01
 4.000000E+03  1.000000E+00  5.000000E+01
 6.000000E+03  1.000000E+00  5.000000E+01
[...]
CELL_DATA      200
SCALARS Porosity             float 1
LOOKUP_TABLE default
 4.377100E-01  4.377100E-01  4.377100E-01  4.377100E-01  4.377100E-01  4.377100E-01  4.377100E-01  4.377100E-01  4.377100E-01  4.377100E-01
 4.377100E-01  4.377100E-01  4.377100E-01  4.377100E-01  4.377100E-01  4.377100E-01  4.377100E-01  4.377100E-01  4.377100E-01  4.377100E-01
 4.377100E-01  4.377100E-01  4.377100E-01  4.377100E-01  4.377100E-01  4.377100E-01  4.377100E-01  4.377100E-01  4.377100E-01  4.377100E-01
 4.377100E-01  4.377100E-01  4.377100E-01  4.377100E-01  4.377100E-01  4.377100E-01  4.377100E-01  4.377100E-01  4.377100E-01  4.377100E-01
 4.377100E-01  4.377100E-01  4.377100E-01  4.377100E-01  4.377100E-01  4.377100E-01  4.377100E-01  4.377100E-01  4.377100E-01  4.377100E-01
 4.377100E-01  4.377100E-01  4.377100E-01  4.377100E-01  4.377100E-01  4.377100E-01  4.377100E-01  4.377100E-01  4.377100E-01  4.377100E-01
 4.377099E-01  4.377100E-01  4.377100E-01  4.377100E-01  4.377100E-01  4.377100E-01  4.377100E-01  4.377100E-01  4.377100E-01  4.377100E-01
 4.377099E-01  4.377100E-01  4.377100E-01  4.377100E-01  4.377100E-01  4.377100E-01  4.377100E-01  4.377100E-01  4.377100E-01  4.377100E-01
 4.377099E-01  4.377100E-01  4.377100E-01  4.377100E-01  4.377100E-01  4.377100E-01  4.377100E-01  4.377100E-01  4.377100E-01  4.377100E-01
 4.377099E-01  4.377100E-01  4.377100E-01  4.377100E-01  4.377100E-01  4.377100E-01  4.377100E-01  4.377100E-01  4.377100E-01  4.377100E-01
 4.377099E-01  4.377100E-01  4.377100E-01  4.377100E-01  4.377100E-01  4.377100E-01  4.377100E-01  4.377100E-01  4.377100E-01  4.377100E-01
 4.377099E-01  4.377100E-01  4.377100E-01  4.377100E-01  4.377100E-01  4.377100E-01  4.377100E-01  4.377100E-01  4.377100E-01  4.377100E-01
 4.377099E-01  4.377100E-01  4.377100E-01  4.377100E-01  4.377100E-01  4.377100E-01  4.377100E-01  4.377100E-01  4.377100E-01  4.377100E-01
 4.377099E-01  4.377100E-01  4.377100E-01  4.377100E-01  4.377100E-01  4.377100E-01  4.377100E-01  4.377100E-01  4.377100E-01  4.377100E-01
 4.377100E-01  4.377100E-01  4.377100E-01  4.377100E-01  4.377100E-01  4.377100E-01  4.377100E-01  4.377100E-01  4.377100E-01  4.377100E-01
 4.377100E-01  4.377100E-01  4.377100E-01  4.377100E-01  4.377100E-01  4.377100E-01  4.377100E-01  4.377100E-01  4.377100E-01  4.377100E-01
 4.377100E-01  4.377100E-01  4.377100E-01  4.377100E-01  4.377100E-01  4.377100E-01  4.377100E-01  4.377100E-01  4.377100E-01  4.377100E-01
 4.377100E-01  4.377100E-01  4.377100E-01  4.377100E-01  4.377100E-01  4.377100E-01  4.377100E-01  4.377100E-01  4.377100E-01  4.377100E-01
 4.377100E-01  4.377100E-01  4.377100E-01  4.377100E-01  4.377100E-01  4.377100E-01  4.377100E-01  4.377100E-01  4.377100E-01  4.377100E-01
 4.377100E-01  4.377100E-01  4.377100E-01  4.377100E-01  4.377100E-01  4.377100E-01  4.377100E-01  4.377100E-01  4.377100E-01  4.377100E-01


SCALARS Permeability         float 1
LOOKUP_TABLE default
 8.829805E-13  8.829804E-13  8.829804E-13  8.829804E-13  8.829803E-13  8.829803E-13  8.829803E-13  8.829803E-13  8.829803E-13  8.829803E-13
 8.829805E-13  8.829804E-13  8.829804E-13  8.829804E-13  8.829803E-13  8.829803E-13  8.829803E-13  8.829803E-13  8.829803E-13  8.829803E-13
 8.829805E-13  8.829804E-13  8.829804E-13  8.829804E-13  8.829803E-13  8.829803E-13  8.829803E-13  8.829803E-13  8.829803E-13  8.829803E-13
 8.829805E-13  8.829804E-13  8.829804E-13  8.829804E-13  8.829804E-13  8.829803E-13  8.829803E-13  8.829803E-13  8.829803E-13  8.829803E-13
 8.829805E-13  8.829804E-13  8.829804E-13  8.829804E-13  8.829804E-13  8.829803E-13  8.829803E-13  8.829803E-13  8.829803E-13  8.829803E-13
 8.829805E-13  8.829804E-13  8.829804E-13  8.829804E-13  8.829804E-13  8.829804E-13  8.829803E-13  8.829803E-13  8.829803E-13  8.829803E-13
 8.829798E-13  8.829804E-13  8.829804E-13  8.829804E-13  8.829804E-13  8.829804E-13  8.829803E-13  8.829803E-13  8.829803E-13  8.829803E-13
 8.829798E-13  8.829804E-13  8.829804E-13  8.829804E-13  8.829804E-13  8.829804E-13  8.829804E-13  8.829803E-13  8.829803E-13  8.829803E-13
 8.829798E-13  8.829804E-13  8.829804E-13  8.829804E-13  8.829804E-13  8.829804E-13  8.829804E-13  8.829804E-13  8.829803E-13  8.829803E-13
 8.829798E-13  8.829804E-13  8.829804E-13  8.829804E-13  8.829804E-13  8.829804E-13  8.829804E-13  8.829804E-13  8.829804E-13  8.829803E-13
 8.829798E-13  8.829804E-13  8.829804E-13  8.829804E-13  8.829804E-13  8.829804E-13  8.829804E-13  8.829804E-13  8.829804E-13  8.829804E-13
 8.829798E-13  8.829804E-13  8.829804E-13  8.829804E-13  8.829804E-13  8.829804E-13  8.829804E-13  8.829804E-13  8.829804E-13  8.829804E-13
 8.829798E-13  8.829804E-13  8.829804E-13  8.829804E-13  8.829804E-13  8.829804E-13  8.829804E-13  8.829804E-13  8.829804E-13  8.829804E-13
 8.829798E-13  8.829805E-13  8.829804E-13  8.829804E-13  8.829804E-13  8.829804E-13  8.829804E-13  8.829804E-13  8.829804E-13  8.829804E-13
 8.829805E-13  8.829805E-13  8.829804E-13  8.829804E-13  8.829804E-13  8.829804E-13  8.829804E-13  8.829804E-13  8.829804E-13  8.829804E-13
 8.829805E-13  8.829805E-13  8.829804E-13  8.829804E-13  8.829804E-13  8.829804E-13  8.829804E-13  8.829804E-13  8.829804E-13  8.829804E-13
 8.829805E-13  8.829805E-13  8.829804E-13  8.829804E-13  8.829804E-13  8.829804E-13  8.829804E-13  8.829804E-13  8.829804E-13  8.829804E-13
 8.829805E-13  8.829805E-13  8.829804E-13  8.829804E-13  8.829804E-13  8.829804E-13  8.829804E-13  8.829804E-13  8.829804E-13  8.829804E-13
 8.829805E-13  8.829805E-13  8.829804E-13  8.829804E-13  8.829804E-13  8.829804E-13  8.829804E-13  8.829804E-13  8.829804E-13  8.829804E-13
 8.829805E-13  8.829805E-13  8.829804E-13  8.829804E-13  8.829804E-13  8.829804E-13  8.829804E-13  8.829804E-13  8.829804E-13  8.829804E-13


SCALARS Liquid_Pressure      float 1
LOOKUP_TABLE default
 8.264133E+06  7.897046E+06  7.732783E+06  7.641058E+06  7.586216E+06  7.551836E+06  7.528642E+06  7.511192E+06  7.496540E+06  7.483403E+06
 8.218967E+06  7.851884E+06  7.687626E+06  7.595903E+06  7.541062E+06  7.506683E+06  7.483490E+06  7.466040E+06  7.451389E+06  7.438252E+06
 8.173807E+06  7.806724E+06  7.642470E+06  7.550749E+06  7.495910E+06  7.461532E+06  7.438338E+06  7.420889E+06  7.406238E+06  7.393102E+06
 8.128653E+06  7.761565E+06  7.597315E+06  7.505597E+06  7.450758E+06  7.416381E+06  7.393189E+06  7.375740E+06  7.361089E+06  7.347953E+06
 8.083505E+06  7.716407E+06  7.552161E+06  7.460445E+06  7.405608E+06  7.371232E+06  7.348040E+06  7.330591E+06  7.315941E+06  7.302805E+06
 8.038363E+06  7.671250E+06  7.507008E+06  7.415295E+06  7.360460E+06  7.326084E+06  7.302893E+06  7.285444E+06  7.270795E+06  7.257659E+06
 7.993227E+06  7.626095E+06  7.461857E+06  7.370146E+06  7.315312E+06  7.280937E+06  7.257747E+06  7.240299E+06  7.225650E+06  7.212514E+06
 7.948085E+06  7.580941E+06  7.416707E+06  7.324998E+06  7.270166E+06  7.235792E+06  7.212602E+06  7.195154E+06  7.180506E+06  7.167371E+06
 7.902937E+06  7.535788E+06  7.371558E+06  7.279852E+06  7.225021E+06  7.190648E+06  7.167458E+06  7.150011E+06  7.135363E+06  7.122228E+06
 7.857783E+06  7.490636E+06  7.326411E+06  7.234707E+06  7.179877E+06  7.145505E+06  7.122316E+06  7.104869E+06  7.090221E+06  7.077087E+06
 7.812624E+06  7.445486E+06  7.281265E+06  7.189563E+06  7.134734E+06  7.100363E+06  7.077175E+06  7.059729E+06  7.045081E+06  7.031947E+06
 7.767458E+06  7.400337E+06  7.236120E+06  7.144420E+06  7.089593E+06  7.055223E+06  7.032035E+06  7.014590E+06  6.999942E+06  6.986808E+06
 7.722287E+06  7.355189E+06  7.190976E+06  7.099279E+06  7.044453E+06  7.010084E+06  6.986897E+06  6.969451E+06  6.954805E+06  6.941671E+06
 7.677110E+06  7.310042E+06  7.145834E+06  7.054139E+06  6.999315E+06  6.964946E+06  6.941759E+06  6.924315E+06  6.909668E+06  6.896535E+06
 7.631927E+06  7.264897E+06  7.100693E+06  7.009000E+06  6.954177E+06  6.919810E+06  6.896623E+06  6.879179E+06  6.864533E+06  6.851400E+06
 7.586749E+06  7.219753E+06  7.055553E+06  6.963863E+06  6.909041E+06  6.874674E+06  6.851489E+06  6.834045E+06  6.819399E+06  6.806267E+06
 7.541578E+06  7.174610E+06  7.010414E+06  6.918726E+06  6.863906E+06  6.829540E+06  6.806355E+06  6.788912E+06  6.774266E+06  6.761134E+06
 7.496413E+06  7.129469E+06  6.965277E+06  6.873591E+06  6.818772E+06  6.784407E+06  6.761223E+06  6.743780E+06  6.729135E+06  6.716003E+06
 7.451254E+06  7.084328E+06  6.920141E+06  6.828457E+06  6.773640E+06  6.739276E+06  6.716092E+06  6.698650E+06  6.684005E+06  6.670873E+06
 7.406101E+06  7.039189E+06  6.875006E+06  6.783325E+06  6.728509E+06  6.694146E+06  6.670962E+06  6.653520E+06  6.638876E+06  6.625745E+06


SCALARS Temperature          float 1
LOOKUP_TABLE default
 1.500447E+02  1.500230E+02  1.500133E+02  1.500078E+02  1.500046E+02  1.500025E+02  1.500012E+02  1.500001E+02  1.499993E+02  1.499985E+02
 1.500447E+02  1.500230E+02  1.500133E+02  1.500078E+02  1.500046E+02  1.500025E+02  1.500012E+02  1.500001E+02  1.499993E+02  1.499985E+02
 1.500447E+02  1.500230E+02  1.500133E+02  1.500078E+02  1.500046E+02  1.500025E+02  1.500012E+02  1.500001E+02  1.499993E+02  1.499985E+02
 1.500446E+02  1.500230E+02  1.500133E+02  1.500078E+02  1.500046E+02  1.500026E+02  1.500012E+02  1.500001E+02  1.499993E+02  1.499985E+02
 1.500446E+02  1.500230E+02  1.500133E+02  1.500078E+02  1.500046E+02  1.500026E+02  1.500012E+02  1.500001E+02  1.499993E+02  1.499985E+02
 1.500446E+02  1.500230E+02  1.500133E+02  1.500078E+02  1.500046E+02  1.500026E+02  1.500012E+02  1.500001E+02  1.499993E+02  1.499985E+02
 1.500445E+02  1.500230E+02  1.500133E+02  1.500078E+02  1.500046E+02  1.500026E+02  1.500012E+02  1.500001E+02  1.499993E+02  1.499985E+02
 1.500445E+02  1.500230E+02  1.500133E+02  1.500078E+02  1.500046E+02  1.500026E+02  1.500012E+02  1.500001E+02  1.499993E+02  1.499985E+02
 1.500446E+02  1.500230E+02  1.500133E+02  1.500078E+02  1.500046E+02  1.500026E+02  1.500012E+02  1.500001E+02  1.499993E+02  1.499985E+02
 1.500446E+02  1.500230E+02  1.500133E+02  1.500078E+02  1.500046E+02  1.500026E+02  1.500012E+02  1.500001E+02  1.499993E+02  1.499985E+02
 1.500446E+02  1.500230E+02  1.500133E+02  1.500078E+02  1.500046E+02  1.500026E+02  1.500012E+02  1.500001E+02  1.499993E+02  1.499985E+02
 1.500446E+02  1.500230E+02  1.500133E+02  1.500078E+02  1.500046E+02  1.500026E+02  1.500012E+02  1.500001E+02  1.499993E+02  1.499985E+02
 1.500446E+02  1.500230E+02  1.500133E+02  1.500078E+02  1.500046E+02  1.500026E+02  1.500012E+02  1.500001E+02  1.499993E+02  1.499985E+02
 1.500447E+02  1.500230E+02  1.500133E+02  1.500078E+02  1.500046E+02  1.500026E+02  1.500012E+02  1.500001E+02  1.499993E+02  1.499985E+02
 1.500448E+02  1.500231E+02  1.500133E+02  1.500079E+02  1.500046E+02  1.500026E+02  1.500012E+02  1.500001E+02  1.499993E+02  1.499985E+02
 1.500448E+02  1.500231E+02  1.500133E+02  1.500079E+02  1.500046E+02  1.500026E+02  1.500012E+02  1.500001E+02  1.499993E+02  1.499985E+02
 1.500448E+02  1.500231E+02  1.500133E+02  1.500079E+02  1.500046E+02  1.500026E+02  1.500012E+02  1.500002E+02  1.499993E+02  1.499985E+02
 1.500448E+02  1.500231E+02  1.500133E+02  1.500079E+02  1.500046E+02  1.500026E+02  1.500012E+02  1.500002E+02  1.499993E+02  1.499985E+02
 1.500448E+02  1.500231E+02  1.500133E+02  1.500079E+02  1.500046E+02  1.500026E+02  1.500012E+02  1.500002E+02  1.499993E+02  1.499985E+02
 1.500448E+02  1.500231E+02  1.500133E+02  1.500079E+02  1.500046E+02  1.500026E+02  1.500012E+02  1.500002E+02  1.499993E+02  1.499985E+02


SCALARS pH                   float 1
LOOKUP_TABLE default
 6.144355E+00  6.144323E+00  6.144308E+00  6.144300E+00  6.144295E+00  6.144292E+00  6.144290E+00  6.144289E+00  6.144287E+00  6.144286E+00
 6.144355E+00  6.144323E+00  6.144308E+00  6.144300E+00  6.144295E+00  6.144292E+00  6.144290E+00  6.144289E+00  6.144287E+00  6.144286E+00
 6.144355E+00  6.144323E+00  6.144308E+00  6.144300E+00  6.144295E+00  6.144292E+00  6.144290E+00  6.144289E+00  6.144287E+00  6.144286E+00
 6.144355E+00  6.144323E+00  6.144308E+00  6.144300E+00  6.144295E+00  6.144292E+00  6.144290E+00  6.144289E+00  6.144287E+00  6.144286E+00
 6.144355E+00  6.144323E+00  6.144308E+00  6.144300E+00  6.144295E+00  6.144292E+00  6.144290E+00  6.144289E+00  6.144287E+00  6.144286E+00
 6.144355E+00  6.144323E+00  6.144308E+00  6.144300E+00  6.144295E+00  6.144292E+00  6.144290E+00  6.144289E+00  6.144287E+00  6.144286E+00
 6.144359E+00  6.144323E+00  6.144308E+00  6.144300E+00  6.144295E+00  6.144292E+00  6.144290E+00  6.144289E+00  6.144287E+00  6.144286E+00
 6.144359E+00  6.144323E+00  6.144308E+00  6.144300E+00  6.144295E+00  6.144292E+00  6.144290E+00  6.144289E+00  6.144287E+00  6.144286E+00
 6.144359E+00  6.144323E+00  6.144308E+00  6.144300E+00  6.144295E+00  6.144292E+00  6.144290E+00  6.144289E+00  6.144287E+00  6.144286E+00
 6.144359E+00  6.144323E+00  6.144308E+00  6.144300E+00  6.144295E+00  6.144292E+00  6.144290E+00  6.144289E+00  6.144287E+00  6.144286E+00
 6.144359E+00  6.144323E+00  6.144308E+00  6.144300E+00  6.144295E+00  6.144292E+00  6.144290E+00  6.144289E+00  6.144287E+00  6.144286E+00
 6.144359E+00  6.144323E+00  6.144308E+00  6.144300E+00  6.144295E+00  6.144292E+00  6.144290E+00  6.144289E+00  6.144287E+00  6.144286E+00
 6.144359E+00  6.144323E+00  6.144308E+00  6.144300E+00  6.144295E+00  6.144292E+00  6.144290E+00  6.144289E+00  6.144288E+00  6.144286E+00
 6.144359E+00  6.144323E+00  6.144308E+00  6.144300E+00  6.144295E+00  6.144292E+00  6.144290E+00  6.144289E+00  6.144288E+00  6.144286E+00
 6.144355E+00  6.144323E+00  6.144308E+00  6.144300E+00  6.144295E+00  6.144292E+00  6.144290E+00  6.144289E+00  6.144288E+00  6.144286E+00
 6.144355E+00  6.144323E+00  6.144308E+00  6.144300E+00  6.144295E+00  6.144292E+00  6.144290E+00  6.144289E+00  6.144288E+00  6.144286E+00
 6.144355E+00  6.144323E+00  6.144308E+00  6.144300E+00  6.144295E+00  6.144292E+00  6.144290E+00  6.144289E+00  6.144288E+00  6.144286E+00
 6.144355E+00  6.144323E+00  6.144308E+00  6.144300E+00  6.144295E+00  6.144292E+00  6.144290E+00  6.144289E+00  6.144288E+00  6.144286E+00
 6.144355E+00  6.144323E+00  6.144308E+00  6.144300E+00  6.144295E+00  6.144292E+00  6.144290E+00  6.144289E+00  6.144288E+00  6.144286E+00
 6.144355E+00  6.144323E+00  6.144308E+00  6.144300E+00  6.144295E+00  6.144292E+00  6.144290E+00  6.144289E+00  6.144288E+00  6.144286E+00


SCALARS Total_H+             float 1
LOOKUP_TABLE default
-3.045281E-03 -3.046033E-03 -3.046372E-03 -3.046563E-03 -3.046677E-03 -3.046749E-03 -3.046797E-03 -3.046834E-03 -3.046864E-03 -3.046890E-03
-3.045281E-03 -3.046032E-03 -3.046372E-03 -3.046562E-03 -3.046677E-03 -3.046749E-03 -3.046797E-03 -3.046833E-03 -3.046863E-03 -3.046890E-03
-3.045281E-03 -3.046032E-03 -3.046371E-03 -3.046562E-03 -3.046676E-03 -3.046748E-03 -3.046797E-03 -3.046833E-03 -3.046863E-03 -3.046890E-03
-3.045280E-03 -3.046031E-03 -3.046371E-03 -3.046562E-03 -3.046676E-03 -3.046748E-03 -3.046796E-03 -3.046832E-03 -3.046863E-03 -3.046889E-03
-3.045280E-03 -3.046031E-03 -3.046370E-03 -3.046561E-03 -3.046675E-03 -3.046747E-03 -3.046796E-03 -3.046832E-03 -3.046862E-03 -3.046889E-03
-3.045280E-03 -3.046030E-03 -3.046370E-03 -3.046561E-03 -3.046675E-03 -3.046747E-03 -3.046795E-03 -3.046832E-03 -3.046862E-03 -3.046888E-03
-3.045261E-03 -3.046029E-03 -3.046369E-03 -3.046560E-03 -3.046675E-03 -3.046746E-03 -3.046795E-03 -3.046831E-03 -3.046861E-03 -3.046888E-03
-3.045261E-03 -3.046029E-03 -3.046369E-03 -3.046560E-03 -3.046674E-03 -3.046746E-03 -3.046794E-03 -3.046831E-03 -3.046861E-03 -3.046887E-03
-3.045260E-03 -3.046028E-03 -3.046369E-03 -3.046559E-03 -3.046674E-03 -3.046746E-03 -3.046794E-03 -3.046830E-03 -3.046860E-03 -3.046887E-03
-3.045259E-03 -3.046028E-03 -3.046368E-03 -3.046559E-03 -3.046673E-03 -3.046745E-03 -3.046794E-03 -3.046830E-03 -3.046860E-03 -3.046887E-03
-3.045258E-03 -3.046027E-03 -3.046368E-03 -3.046558E-03 -3.046673E-03 -3.046745E-03 -3.046793E-03 -3.046829E-03 -3.046860E-03 -3.046886E-03
-3.045258E-03 -3.046027E-03 -3.046367E-03 -3.046558E-03 -3.046672E-03 -3.046744E-03 -3.046793E-03 -3.046829E-03 -3.046859E-03 -3.046886E-03
-3.045257E-03 -3.046026E-03 -3.046367E-03 -3.046557E-03 -3.046672E-03 -3.046744E-03 -3.046792E-03 -3.046829E-03 -3.046859E-03 -3.046885E-03
-3.045256E-03 -3.046026E-03 -3.046366E-03 -3.046557E-03 -3.046671E-03 -3.046743E-03 -3.046792E-03 -3.046828E-03 -3.046858E-03 -3.046885E-03
-3.045270E-03 -3.046025E-03 -3.046366E-03 -3.046556E-03 -3.046671E-03 -3.046743E-03 -3.046791E-03 -3.046828E-03 -3.046858E-03 -3.046885E-03
-3.045270E-03 -3.046025E-03 -3.046365E-03 -3.046556E-03 -3.046670E-03 -3.046742E-03 -3.046791E-03 -3.046827E-03 -3.046857E-03 -3.046884E-03
-3.045270E-03 -3.046024E-03 -3.046365E-03 -3.046555E-03 -3.046670E-03 -3.046742E-03 -3.046791E-03 -3.046827E-03 -3.046857E-03 -3.046884E-03
-3.045269E-03 -3.046024E-03 -3.046364E-03 -3.046555E-03 -3.046670E-03 -3.046742E-03 -3.046790E-03 -3.046826E-03 -3.046857E-03 -3.046883E-03
-3.045269E-03 -3.046023E-03 -3.046364E-03 -3.046555E-03 -3.046669E-03 -3.046741E-03 -3.046790E-03 -3.046826E-03 -3.046856E-03 -3.046883E-03
-3.045269E-03 -3.046023E-03 -3.046363E-03 -3.046554E-03 -3.046669E-03 -3.046741E-03 -3.046789E-03 -3.046826E-03 -3.046856E-03 -3.046882E-03


SCALARS Total_SiO2(aq)       float 1
LOOKUP_TABLE default
 1.039588E-02  1.039402E-02  1.039318E-02  1.039272E-02  1.039244E-02  1.039227E-02  1.039215E-02  1.039206E-02  1.039199E-02  1.039192E-02
 1.039588E-02  1.039402E-02  1.039318E-02  1.039272E-02  1.039244E-02  1.039227E-02  1.039215E-02  1.039206E-02  1.039199E-02  1.039192E-02
 1.039588E-02  1.039402E-02  1.039318E-02  1.039272E-02  1.039244E-02  1.039227E-02  1.039215E-02  1.039206E-02  1.039199E-02  1.039192E-02
 1.039588E-02  1.039402E-02  1.039318E-02  1.039272E-02  1.039244E-02  1.039227E-02  1.039215E-02  1.039206E-02  1.039199E-02  1.039192E-02
 1.039588E-02  1.039402E-02  1.039318E-02  1.039272E-02  1.039244E-02  1.039227E-02  1.039215E-02  1.039206E-02  1.039199E-02  1.039192E-02
 1.039588E-02  1.039402E-02  1.039318E-02  1.039272E-02  1.039244E-02  1.039227E-02  1.039215E-02  1.039206E-02  1.039199E-02  1.039192E-02
 1.039610E-02  1.039402E-02  1.039318E-02  1.039272E-02  1.039244E-02  1.039227E-02  1.039215E-02  1.039206E-02  1.039199E-02  1.039192E-02
 1.039610E-02  1.039402E-02  1.039318E-02  1.039272E-02  1.039244E-02  1.039227E-02  1.039215E-02  1.039206E-02  1.039199E-02  1.039192E-02
 1.039610E-02  1.039402E-02  1.039318E-02  1.039272E-02  1.039244E-02  1.039227E-02  1.039215E-02  1.039206E-02  1.039199E-02  1.039192E-02
 1.039610E-02  1.039402E-02  1.039318E-02  1.039272E-02  1.039244E-02  1.039227E-02  1.039215E-02  1.039206E-02  1.039199E-02  1.039192E-02
 1.039610E-02  1.039402E-02  1.039318E-02  1.039272E-02  1.039244E-02  1.039227E-02  1.039215E-02  1.039206E-02  1.039199E-02  1.039192E-02
 1.039610E-02  1.039402E-02  1.039318E-02  1.039272E-02  1.039244E-02  1.039227E-02  1.039215E-02  1.039206E-02  1.039199E-02  1.039192E-02
 1.039611E-02  1.039402E-02  1.039318E-02  1.039272E-02  1.039244E-02  1.039227E-02  1.039215E-02  1.039206E-02  1.039199E-02  1.039192E-02
 1.039611E-02  1.039402E-02  1.039318E-02  1.039272E-02  1.039244E-02  1.039227E-02  1.039215E-02  1.039206E-02  1.039199E-02  1.039192E-02
 1.039589E-02  1.039402E-02  1.039318E-02  1.039272E-02  1.039244E-02  1.039227E-02  1.039215E-02  1.039206E-02  1.039199E-02  1.039192E-02
 1.039589E-02  1.039402E-02  1.039318E-02  1.039272E-02  1.039244E-02  1.039227E-02  1.039215E-02  1.039206E-02  1.039199E-02  1.039192E-02
 1.039589E-02  1.039402E-02  1.039318E-02  1.039272E-02  1.039244E-02  1.039227E-02  1.039215E-02  1.039206E-02  1.039199E-02  1.039192E-02
 1.039589E-02  1.039402E-02  1.039318E-02  1.039272E-02  1.039244E-02  1.039227E-02  1.039215E-02  1.039206E-02  1.039199E-02  1.039192E-02
 1.039589E-02  1.039402E-02  1.039318E-02  1.039272E-02  1.039244E-02  1.039227E-02  1.039215E-02  1.039206E-02  1.039199E-02  1.039192E-02