# vtk DataFile Version 2.0
PFLOTRAN output
ASCII
DATASET UNSTRUCTURED_GRID
POINTS          462 float
 0.000000E+00  0.000000E+00  0.000000E+00
 2.000000E+03  0.000000E+00  0.000000E+00
 4.000000E+03  0.000000E+00  0.000000E+00
 6.000000E+03  0.000000E+00  0.000000E+00
 8.000000E+03  0.000000E+00  0.000000E+00
 1.000000E+04  0.000000E+00  0.000000E+00
 1.200000E+04  0.000000E+00  0.000000E+00
 1.400000E+04  0.000000E+00  0.000000E+00
 1.600000E+04  0.000000E+00  0.000000E+00
 1.800000E+04  0.000000E+00  0.000000E+00
 2.000000E+04  0.000000E+00  0.000000E+00
 0.000000E+00  1.000000E+00  0.000000E+00
 2.000000E+03  1.000000E+00  0.000000E+00
 4.000000E+03  1.000000E+00  0.000000E+00
 6.000000E+03  1.000000E+00  0.000000E+00
 8.000000E+03  1.000000E+00  0.000000E+00
 1.000000E+04  1.000000E+00  0.000000E+00
 1.200000E+04  1.000000E+00  0.000000E+00
 1.400000E+04  1.000000E+00  0.000000E+00
 1.600000E+04  1.000000E+00  0.000000E+00
 1.800000E+04  1.000000E+00  0.000000E+00
 2.000000E+04  1.000000E+00  0.000000E+00
 0.000000E+00  0.000000E+00  5.000000E+00
 2.000000E+03  0.000000E+00  5.000000E+00
 4.000000E+03  0.000000E+00  5.000000E+00
 6.000000E+03  0.000000E+00  5.000000E+00
 8.000000E+03  0.000000E+00  5.000000E+00
 1.000000E+04  0.000000E+00  5.000000E+00
 1.200000E+04  0.000000E+00  5.000000E+00
 1.400000E+04  0.000000E+00  5.000000E+00
 1.600000E+04  0.000000E+00  5.000000E+00
 1.800000E+04  0.000000E+00  5.000000E+00
 2.000000E+04  0.000000E+00  5.000000E+00
 0.000000E+00  1.000000E+00  5.000000E+00
 2.000000E+03  1.000000E+00  5.000000E+00
 4.000000E+03  1.000000E+00  5.000000E+00
 6.000000E+03  1.000000E+00  5.000000E+00
 8.000000E+03  1.000000E+00  5.000000E+00
 1.000000E+04  1.000000E+00  5.000000E+00
 1.200000E+04  1.000000E+00  5.000000E+00
 1.400000E+04  1.000000E+00  5.000000E+00
 1.600000E+04  1.000000E+00  5.000000E+00
 1.800000E+04  1.000000E+00  5.000000E+00
 2.000000E+04  1.000000E+00  5.000000E+00
 0.000000E+00  0.000000E+00  1.000000E+01
 2.000000E+03  0.000000E+00  1.000000E+01
 4.000000E+03  0.000000E+00  1.000000E+01
 6.000000E+03  0.000000E+00  1.000000E+01
 8.000000E+03  0.000000E+00  1.000000E+01
 1.000000E+04  0.000000E+00  1.000000E+01
 1.200000E+04  0.000000E+00  1.000000E+01
 1.400000E+04  0.000000E+00  1.000000E+01
 1.600000E+04  0.000000E+00  1.000000E+01
 1.800000E+04  0.000000E+00  1.000000E+01
 2.000000E+04  0.000000E+00  1.000000E+01
 0.000000E+00  1.000000E+00  1.000000E+01
 2.000000E+03  1.000000E+00  1.000000E+01
 4.000000E+03  1.000000E+00  1.000000E+01
 6.000000E+03  1.000000E+00  1.000000E+01
 8.000000E+03  1.000000E+00  1.000000E+01
 1.000000E+04  1.000000E+00  1.000000E+01
 1.200000E+04  1.000000E+00  1.000000E+01
 1.400000E+04  1.000000E+00  1.000000E+01
 1.600000E+04  1.000000E+00  1.000000E+01
 1.800000E+04  1.000000E+00  1.000000E+01
 2.000000E+04  1.000000E+00  1.000000E+01
 0.000000E+00  0.000000E+00  1.500000E+01
 2.000000E+03  0.000000E+00  1.500000E+01
 4.000000E+03  0.000000E+00  1.500000E+01
 6.000000E+03  0.000000E+00  1.500000E+01
 8.000000E+03  0.000000E+00  1.500000E+01
 1.000000E+04  0.000000E+00  1.500000E+01
 1.200000E+04  0.000000E+00  1.500000E+01
 1.400000E+04  0.000000E+00  1.500000E+01
 1.600000E+04  0.000000E+00  1.500000E+01
 1.800000E+04  0.000000E+00  1.500000E+01
 2.000000E+04  0.000000E+00  1.500000E+01
 0.000000E+00  1.000000E+00  1.500000E+01
 2.000000E+03  1.000000E+00  1.500000E+01
 4.000000E+03  1.000000E+00  1.500000E+01
 6.000000E+03  1.000000E+00  1.500000E+01
 8.000000E+03  1.000000E+00  1.500000E+01
 1.000000E+04  1.000000E+00  1.500000E+01
 1.200000E+04  1.000000E+00  1.500000E+01
 1.400000E+04  1.000000E+00  1.500000E+01
 1.600000E+04  1.000000E+00  1.500000E+01
 1.800000E+04  1.000000E+00  1.500000E+01
 2.000000E+04  1.000000E+00  1.500000E+01
 0.000000E+00  0.000000E+00  2.000000E+01
 2.000000E+03  0.000000E+00  2.000000E+01
 4.000000E+03  0.000000E+00  2.000000E+01
 6.000000E+03  0.000000E+00  2.000000E+01
 8.000000E+03  0.000000E+00  2.000000E+01
 1.000000E+04  0.000000E+00  2.000000E+01
 1.200000E+04  0.000000E+00  2.000000E+01
 1.400000E+04  0.000000E+00  2.000000E+01
 1.600000E+04  0.000000E+00  2.000000E+01
 1.800000E+04  0.000000E+00  2.000000E+01
 2.000000E+04  0.000000E+00  2.000000E+01
 0.000000E+00  1.000000E+00  2.000000E+01
 2.000000E+03  1.000000E+00  2.000000E+01
 4.000000E+03  1.000000E+00  2.000000E+01
 6.000000E+03  1.000000E+00  2.000000E+01
 8.000000E+03  1.000000E+00  2.000000E+01
 1.000000E+04  1.000000E+00  2.000000E+01
 1.200000E+04  1.000000E+00  2.000000E+01
 1.400000E+04  1.000000E+00  2.000000E+01
 1.600000E+04  1.000000E+00  2.000000E+01
 1.800000E+04  1.000000E+00  2.000000E+01
 2.000000E+04  1.000000E+00  2.000000E+01
 0.000000E+00  0.000000E+00  2.500000E+01
 2.000000E+03  0.000000E+00  2.500000E+01
 4.000000E+03  0.000000E+00  2.500000E+01
 6.000000E+03  0.000000E+00  2.500000E+01
 8.000000E+03  0.000000E+00  2.500000E+01
 1.000000E+04  0.000000E+00  2.500000E+01
 1.200000E+04  0.000000E+00  2.500000E+01
 1.400000E+04  0.000000E+00  2.500000E+01
 1.600000E+04  0.000000E+00  2.500000E+01
 1.800000E+04  0.000000E+00  2.500000E+01
 2.000000E+04  0.000000E+00  2.500000E+01
 0.000000E+00  1.000000E+00  2.500000E+01
 2.000000E+03  1.000000E+00  2.500000E+01
 4.000000E+03  1.000000E+00  2.500000E+01
 6.000000E+03  1.000000E+00  2.500000E+01
 8.000000E+03  1.000000E+00  2.500000E+01
 1.000000E+04  1.000000E+00  2.500000E+01
 1.200000E+04  1.000000E+00  2.500000E+01
 1.400000E+04  1.000000E+00  2.500000E+01
 1.600000E+04  1.000000E+00  2.500000E+01
 1.800000E+04  1.000000E+00  2.500000E+01
 2.000000E+04  1.000000E+00  2.500000E+01
 0.000000E+00  0.000000E+00  3.000000E+01
 2.000000E+03  0.000000E+00  3.000000E+01
 4.000000E+03  0.000000E+00  3.000000E+01
 6.000000E+03  0.000000E+00  3.000000E+01
 8.000000E+03  0.000000E+00  3.000000E+01
 1.000000E+04  0.000000E+00  3.000000E+01
 1.200000E+04  0.000000E+00  3.000000E+01
 1.400000E+04  0.000000E+00  3.000000E+01
 1.600000E+04  0.000000E+00  3.000000E+01
 1.800000E+04  0.000000E+00  3.000000E+01
 2.000000E+04  0.000000E+00  3.000000E+01
 0.000000E+00  1.000000E+00  3.000000E+01
 2.000000E+03  1.000000E+00  3.000000E+01
 4.000000E+03  1.000000E+00  3.000000E+01
 6.000000E+03  1.000000E+00  3.000000E+01
 8.000000E+03  1.000000E+00  3.000000E+01
 1.000000E+04  1.000000E+00  3.000000E+01
 1.200000E+04  1.000000E+00  3.000000E+01
 1.400000E+04  1.000000E+00  3.000000E+01
 1.600000E+04  1.000000E+00  3.000000E+01
 1.800000E+04  1.000000E+00  3.000000E+01
 2.000000E+04  1.000000E+00  3.000000E+01
 0.000000E+00  0.000000E+00  3.500000E+01
 2.000000E+03  0.000000E+00  3.500000E+01
 4.000000E+03  0.000000E+00  3.500000E+01
 6.000000E+03  0.000000E+00  3.500000E+01
 8.000000E+03  0.000000E+00  3.500000E+01
 1.000000E+04  0.000000E+00  3.500000E+01
 1.200000E+04  0.000000E+00  3.500000E+01
 1.400000E+04  0.000000E+00  3.500000E+01
 1.600000E+04  0.000000E+00  3.500000E+01
 1.800000E+04  0.000000E+00  3.500000E+01
 2.000000E+04  0.000000E+00  3.500000E+01
 0.000000E+00  1.000000E+00  3.500000E+01
 2.000000E+03  1.000000E+00  3.500000E+01
 4.000000E+03  1.000000E+00  3.500000E+01
 6.000000E+03  1.000000E+00  3.500000E+01
 8.000000E+03  1.000000E+00  3.500000E+01
 1.000000E+04  1.000000E+00  3.500000E+01
 1.200000E+04  1.000000E+00  3.500000E+01
 1.400000E+04  1.000000E+00  3.500000E+01
 1.600000E+04  1.000000E+00  3.500000E+01
 1.800000E+04  1.000000E+00  3.500000E+01
 2.000000E+04  1.000000E+00  3.500000E+01
 0.000000E+00  0.000000E+00  4.000000E+01
 2.000000E+03  0.000000E+00  4.000000E+01
 4.000000E+03  0.000000E+00  4.000000E+01
 6.000000E+03  0.000000E+00  4.000000E+01
 8.000000E+03  0.000000E+00  4.000000E+01
 1.000000E+04  0.000000E+00  4.000000E+01
 1.200000E+04  0.000000E+00  4.000000E+01
 1.400000E+04  0.000000E+00  4.000000E+01
 1.600000E+04  0.000000E+00  4.000000E+01
 1.800000E+04  0.000000E+00  4.000000E+01
 2.000000E+04  0.000000E+00  4.000000E+01
 0.000000E+00  1.000000E+00  4.000000E+01
 2.000000E+03  1.000000E+00  4.000000E+01
 4.000000E+03  1.000000E+00  4.000000E+01
 6.000000E+03  1.000000E+00  4.000000E+01
 8.000000E+03  1.000000E+00  4.000000E+01
 1.000000E+04  1.000000E+00  4.000000E+01
 1.200000E+04  1.000000E+00  4.000000E+01
 1.400000E+04  1.000000E+00  4.000000E+01
 1.600000E+04  1.000000E+00  4.000000E+01
 1.800000E+04  1.000000E+00  4.000000E+01
 2.000000E+04  1.000000E+00  4.000000E+01
 0.000000E+00  0.000000E+00  4.500000E+01
 2.000000E+03  0.000000E+00  4.500000E+01
 4.000000E+03  0.000000E+00  4.500000E+01
 6.000000E+03  0.000000E+00  4.500000E+01
 8.000000E+03  0.000000E+00  4.500000E+01
 1.000000E+04  0.000000E+00  4.500000E+01
 1.200000E+04  0.000000E+00  4.500000E+01
 1.400000E+04  0.000000E+00  4.500000E+01
 1.600000E+04  0.000000E+00  4.500000E+01
 1.800000E+04  0.000000E+00  4.500000E+01
 2.000000E+04  0.000000E+00  4.500000E+01
 0.000000E+00  1.000000E+00  4.500000E+01
 2.000000E+03  1.000000E+00  4.500000E+01
 4.000000E+03  1.000000E+00  4.500000E+01
 6.000000E+03  1.000000E+00  4.500000E+01
 8.000000E+03  1.000000E+00  4.500000E+01
 1.000000E+04  1.000000E+00  4.500000E+01
 1.200000E+04  1.000000E+00  4.500000E+01
 1.400000E+04  1.000000E+00  4.500000E+01
 1.600000E+04  1.000000E+00  4.500000E+01
 1.800000E+04  1.000000E+00  4.500000E+01
 2.000000E+04  1.000000E+00  4.500000E+01
 0.000000E+00  0.000000E+00  5.000000E+01
 2.000000E+03  0.000000E+00  5.000000E+01
 4.000000E+03  0.000000E+00  5.000000E+01
 6.000000E+03  0.000000E+00  5.000000E+01
 8.000000E+03  0.000000E+00  5.000000E+01
 1.000000E+04  0.000000E+00  5.000000E+01
 1.200000E+04  0.000000E+00  5.000000E+01
 1.400000E+04  0.000000E+00  5.000000E+01
 1.600000E+04  0.000000E+00  5.000000E+01
 1.800000E+04  0.000000E+00  5.000000E+01
 2.000000E+04  0.000000E+00  5.000000E+01
 0.000000E+00  1.000000E+00  5.000000E+01
 2.000000E+03  1.000000E+00  5.000000E+01
 4.000000E+03  1.000000E+00  5.000000E+01
 6.000000E+03  1.000000E+00  5.000000E+01
[...]
CELL_DATA      200
SCALARS Porosity             float 1
LOOKUP_TABLE default
 4.377100E-01  4.377100E-01  4.377100E-01  4.377100E-01  4.377100E-01  4.377100E-01  4.377100E-01  4.377100E-01  4.377100E-01  4.377100E-01
 4.377100E-01  4.377100E-01  4.377100E-01  4.377100E-01  4.377100E-01  4.377100E-01  4.377100E-01  4.377100E-01  4.377100E-01  4.377100E-01
 4.377100E-01  4.377100E-01  4.377100E-01  4.377100E-01  4.377100E-01  4.377100E-01  4.377100E-01  4.377100E-01  4.377100E-01  4.377100E-01
 4.377100E-01  4.377100E-01  4.377100E-01  4.377100E-01  4.377100E-01  4.377100E-01  4.377100E-01  4.377100E-01  4.377100E-01  4.377100E-01
 4.377100E-01  4.377100E-01  4.377100E-01  4.377100E-01  4.377100E-01  4.377100E-01  4.377100E-01  4.377100E-01  4.377100E-01  4.377100E-01
 4.377100E-01  4.377100E-01  4.377100E-01  4.377100E-01  4.377100E-01  4.377100E-01  4.377100E-01  4.377100E-01  4.377100E-01  4.377100E-01
 4.377099E-01  4.377100E-01  4.377100E-01  4.377100E-01  4.377100E-01  4.377100E-01  4.377100E-01  4.377100E-01  4.377100E-01  4.377100E-01
 4.377099E-01  4.377100E-01  4.377100E-01  4.377100E-01  4.377100E-01  4.377100E-01  4.377100E-01  4.377100E-01  4.377100E-01  4.377100E-01
 4.377099E-01  4.377100E-01  4.377100E-01  4.377100E-01  4.377100E-01  4.377100E-01  4.377100E-01  4.377100E-01  4.377100E-01  4.377100E-01
 4.377099E-01  4.377100E-01  4.377100E-01  4.377100E-01  4.377100E-01  4.377100E-01  4.377100E-01  4.377100E-01  4.377100E-01  4.377100E-01
 4.377099E-01  4.377100E-01  4.377100E-01  4.377100E-01  4.377100E-01  4.377100E-01  4.377100E-01  4.377100E-01  4.377100E-01  4.377100E-01
 4.377099E-01  4.377100E-01  4.377100E-01  4.377100E-01  4.377100E-01  4.377100E-01  4.377100E-01  4.377100E-01  4.377100E-01  4.377100E-01
 4.377099E-01  4.377100E-01  4.377100E-01  4.377100E-01  4.377100E-01  4.377100E-01  4.377100E-01  4.377100E-01  4.377100E-01  4.377100E-01
 4.377099E-01  4.377100E-01  4.377100E-01  4.377100E-01  4.377100E-01  4.377100E-01  4.377100E-01  4.377100E-01  4.377100E-01  4.377100E-01
 4.377100E-01  4.377100E-01  4.377100E-01  4.377100E-01  4.377100E-01  4.377100E-01  4.377100E-01  4.377100E-01  4.377100E-01  4.377100E-01
 4.377100E-01  4.377100E-01  4.377100E-01  4.377100E-01  4.377100E-01  4.377100E-01  4.377100E-01  4.377100E-01  4.377100E-01  4.377100E-01
 4.377100E-01  4.377100E-01  4.377100E-01  4.377100E-01  4.377100E-01  4.377100E-01  4.377100E-01  4.377100E-01  4.377100E-01  4.377100E-01
 4.377100E-01  4.377100E-01  4.377100E-01  4.377100E-01  4.377100E-01  4.377100E-01  4.377100E-01  4.377100E-01  4.377100E-01  4.377100E-01
 4.377100E-01  4.377100E-01  4.377100E-01  4.377100E-01  4.377100E-01  4.377100E-01  4.377100E-01  4.377100E-01  4.377100E-01  4.377100E-01
 4.377100E-01  4.377100E-01  4.377100E-01  4.377100E-01  4.377100E-01  4.377100E-01  4.377100E-01  4.377100E-01  4.377100E-01  4.377100E-01


SCALARS Permeability         float 1
LOOKUP_TABLE default
 8.829805E-13  8.829804E-13  8.829804E-13  8.829804E-13  8.829804E-13  8.829804E-13  8.829804E-13  8.829804E-13  8.829804E-13  8.829804E-13
 8.829805E-13  8.829804E-13  8.829804E-13  8.829804E-13  8.829804E-13  8.829804E-13  8.829804E-13  8.829804E-13  8.829804E-13  8.829804E-13
 8.829805E-13  8.829805E-13  8.829804E-13  8.829804E-13  8.829804E-13  8.829804E-13  8.829804E-13  8.829804E-13  8.829804E-13  8.829804E-13
 8.829805E-13  8.829805E-13  8.829804E-13  8.829804E-13  8.829804E-13  8.829804E-13  8.829804E-13  8.829804E-13  8.829804E-13  8.829804E-13
 8.829805E-13  8.829805E-13  8.829804E-13  8.829804E-13  8.829804E-13  8.829804E-13  8.829804E-13  8.829804E-13  8.829804E-13  8.829804E-13
 8.829805E-13  8.829805E-13  8.829804E-13  8.829804E-13  8.829804E-13  8.829804E-13  8.829804E-13  8.829804E-13  8.829804E-13  8.829804E-13
 8.829800E-13  8.829805E-13  8.829804E-13  8.829804E-13  8.829804E-13  8.829804E-13  8.829804E-13  8.829804E-13  8.829804E-13  8.829804E-13
 8.829800E-13  8.829805E-13  8.829804E-13  8.829804E-13  8.829804E-13  8.829804E-13  8.829804E-13  8.829804E-13  8.829804E-13  8.829804E-13
 8.829800E-13  8.829805E-13  8.829804E-13  8.829804E-13  8.829804E-13  8.829804E-13  8.829804E-13  8.829804E-13  8.829804E-13  8.829804E-13
 8.829800E-13  8.829805E-13  8.829804E-13  8.829804E-13  8.829804E-13  8.829804E-13  8.829804E-13  8.829804E-13  8.829804E-13  8.829804E-13
 8.829800E-13  8.829805E-13  8.829804E-13  8.829804E-13  8.829804E-13  8.829804E-13  8.829804E-13  8.829804E-13  8.829804E-13  8.829804E-13
 8.829800E-13  8.829805E-13  8.829804E-13  8.829804E-13  8.829804E-13  8.829804E-13  8.829804E-13  8.829804E-13  8.829804E-13  8.829804E-13
 8.829800E-13  8.829805E-13  8.829804E-13  8.829804E-13  8.829804E-13  8.829804E-13  8.829804E-13  8.829804E-13  8.829804E-13  8.829804E-13
 8.829800E-13  8.829805E-13  8.829805E-13  8.829804E-13  8.829804E-13  8.829804E-13  8.829804E-13  8.829804E-13  8.829804E-13  8.829804E-13
 8.829806E-13  8.829805E-13  8.829805E-13  8.829804E-13  8.829804E-13  8.829804E-13  8.829804E-13  8.829804E-13  8.829804E-13  8.829804E-13
 8.829806E-13  8.829805E-13  8.829805E-13  8.829804E-13  8.829804E-13  8.829804E-13  8.829804E-13  8.829804E-13  8.829804E-13  8.829804E-13
 8.829806E-13  8.829805E-13  8.829805E-13  8.829804E-13  8.829804E-13  8.829804E-13  8.829804E-13  8.829804E-13  8.829804E-13  8.829804E-13
 8.829806E-13  8.829805E-13  8.829805E-13  8.829804E-13  8.829804E-13  8.829804E-13  8.829804E-13  8.829804E-13  8.829804E-13  8.829804E-13
 8.829806E-13  8.829805E-13  8.829805E-13  8.829804E-13  8.829804E-13  8.829804E-13  8.829804E-13  8.829804E-13  8.829804E-13  8.829804E-13
 8.829806E-13  8.829805E-13  8.829805E-13  8.829805E-13  8.829804E-13  8.829804E-13  8.829804E-13  8.829804E-13  8.829804E-13  8.829804E-13


SCALARS Liquid_Pressure      float 1
LOOKUP_TABLE default
 8.231015E+06  7.867062E+06  7.708286E+06  7.623170E+06  7.574804E+06  7.545814E+06  7.526409E+06  7.511054E+06  7.497063E+06  7.483667E+06
 8.185850E+06  7.821901E+06  7.663129E+06  7.578016E+06  7.529651E+06  7.500661E+06  7.481256E+06  7.465902E+06  7.451912E+06  7.438516E+06
 8.140690E+06  7.776741E+06  7.617973E+06  7.532862E+06  7.484498E+06  7.455510E+06  7.436105E+06  7.420752E+06  7.406761E+06  7.393366E+06
 8.095537E+06  7.731583E+06  7.572819E+06  7.487710E+06  7.439347E+06  7.410359E+06  7.390956E+06  7.375602E+06  7.361612E+06  7.348217E+06
 8.050390E+06  7.686426E+06  7.527666E+06  7.442559E+06  7.394197E+06  7.365210E+06  7.345807E+06  7.330454E+06  7.316464E+06  7.303070E+06
 8.005249E+06  7.641270E+06  7.482514E+06  7.397409E+06  7.349049E+06  7.320063E+06  7.300660E+06  7.285307E+06  7.271318E+06  7.257924E+06
 7.960113E+06  7.596115E+06  7.437363E+06  7.352261E+06  7.303902E+06  7.274916E+06  7.255514E+06  7.240162E+06  7.226173E+06  7.212779E+06
 7.914972E+06  7.550962E+06  7.392214E+06  7.307114E+06  7.258756E+06  7.229771E+06  7.210369E+06  7.195017E+06  7.181029E+06  7.167635E+06
 7.869825E+06  7.505810E+06  7.347066E+06  7.261968E+06  7.213611E+06  7.184627E+06  7.165225E+06  7.149874E+06  7.135886E+06  7.122492E+06
 7.824672E+06  7.460659E+06  7.301919E+06  7.216823E+06  7.168468E+06  7.139484E+06  7.120083E+06  7.104732E+06  7.090744E+06  7.077351E+06
 7.779514E+06  7.415509E+06  7.256773E+06  7.171680E+06  7.123325E+06  7.094343E+06  7.074942E+06  7.059592E+06  7.045604E+06  7.032211E+06
 7.734349E+06  7.370361E+06  7.211629E+06  7.126537E+06  7.078184E+06  7.049202E+06  7.029802E+06  7.014452E+06  7.000465E+06  6.987073E+06
 7.689178E+06  7.325214E+06  7.166486E+06  7.081396E+06  7.033045E+06  7.004063E+06  6.984664E+06  6.969314E+06  6.955327E+06  6.941935E+06
 7.644002E+06  7.280068E+06  7.121344E+06  7.036257E+06  6.987906E+06  6.958926E+06  6.939527E+06  6.924177E+06  6.910191E+06  6.896799E+06
 7.598820E+06  7.234923E+06  7.076204E+06  6.991118E+06  6.942769E+06  6.913789E+06  6.894391E+06  6.879042E+06  6.865056E+06  6.851664E+06
 7.553643E+06  7.189780E+06  7.031064E+06  6.945981E+06  6.897633E+06  6.868654E+06  6.849256E+06  6.833908E+06  6.819922E+06  6.806531E+06
 7.508473E+06  7.144638E+06  6.985926E+06  6.900845E+06  6.852499E+06  6.823520E+06  6.804123E+06  6.788775E+06  6.774789E+06  6.761399E+06
 7.463309E+06  7.099497E+06  6.940790E+06  6.855711E+06  6.807365E+06  6.778388E+06  6.758991E+06  6.743643E+06  6.729658E+06  6.716267E+06
 7.418151E+06  7.054358E+06  6.895654E+06  6.810578E+06  6.762233E+06  6.733256E+06  6.713860E+06  6.698512E+06  6.684528E+06  6.671138E+06
 7.372999E+06  7.009220E+06  6.850520E+06  6.765445E+06  6.717102E+06  6.688126E+06  6.668730E+06  6.653383E+06  6.639399E+06  6.626009E+06


SCALARS Temperature          float 1
LOOKUP_TABLE default
 1.500427E+02  1.500212E+02  1.500118E+02  1.500068E+02  1.500039E+02  1.500022E+02  1.500010E+02  1.500001E+02  1.499993E+02  1.499985E+02
 1.500427E+02  1.500212E+02  1.500118E+02  1.500068E+02  1.500039E+02  1.500022E+02  1.500010E+02  1.500001E+02  1.499993E+02  1.499985E+02
 1.500427E+02  1.500212E+02  1.500118E+02  1.500068E+02  1.500039E+02  1.500022E+02  1.500010E+02  1.500001E+02  1.499993E+02  1.499985E+02
 1.500427E+02  1.500212E+02  1.500118E+02  1.500068E+02  1.500039E+02  1.500022E+02  1.500010E+02  1.500001E+02  1.499993E+02  1.499985E+02
 1.500427E+02  1.500212E+02  1.500118E+02  1.500068E+02  1.500039E+02  1.500022E+02  1.500010E+02  1.500001E+02  1.499993E+02  1.499985E+02
 1.500427E+02  1.500212E+02  1.500118E+02  1.500068E+02  1.500039E+02  1.500022E+02  1.500010E+02  1.500001E+02  1.499993E+02  1.499985E+02
 1.500426E+02  1.500212E+02  1.500118E+02  1.500068E+02  1.500039E+02  1.500022E+02  1.500010E+02  1.500001E+02  1.499993E+02  1.499985E+02
 1.500426E+02  1.500212E+02  1.500118E+02  1.500068E+02  1.500039E+02  1.500022E+02  1.500010E+02  1.500001E+02  1.499993E+02  1.499985E+02
 1.500426E+02  1.500213E+02  1.500118E+02  1.500068E+02  1.500039E+02  1.500022E+02  1.500010E+02  1.500001E+02  1.499993E+02  1.499985E+02
 1.500427E+02  1.500213E+02  1.500118E+02  1.500068E+02  1.500039E+02  1.500022E+02  1.500010E+02  1.500001E+02  1.499993E+02  1.499985E+02
 1.500427E+02  1.500213E+02  1.500118E+02  1.500068E+02  1.500039E+02  1.500022E+02  1.500010E+02  1.500001E+02  1.499993E+02  1.499985E+02
 1.500427E+02  1.500213E+02  1.500118E+02  1.500068E+02  1.500039E+02  1.500022E+02  1.500011E+02  1.500001E+02  1.499993E+02  1.499985E+02
 1.500427E+02  1.500213E+02  1.500118E+02  1.500068E+02  1.500039E+02  1.500022E+02  1.500011E+02  1.500001E+02  1.499993E+02  1.499985E+02
 1.500427E+02  1.500213E+02  1.500118E+02  1.500068E+02  1.500039E+02  1.500022E+02  1.500011E+02  1.500001E+02  1.499993E+02  1.499985E+02
 1.500429E+02  1.500213E+02  1.500118E+02  1.500068E+02  1.500039E+02  1.500022E+02  1.500011E+02  1.500001E+02  1.499993E+02  1.499985E+02
 1.500428E+02  1.500213E+02  1.500118E+02  1.500068E+02  1.500039E+02  1.500022E+02  1.500011E+02  1.500001E+02  1.499993E+02  1.499985E+02
 1.500428E+02  1.500213E+02  1.500118E+02  1.500068E+02  1.500039E+02  1.500022E+02  1.500011E+02  1.500001E+02  1.499993E+02  1.499985E+02
 1.500428E+02  1.500213E+02  1.500118E+02  1.500068E+02  1.500039E+02  1.500022E+02  1.500011E+02  1.500001E+02  1.499993E+02  1.499985E+02
 1.500428E+02  1.500213E+02  1.500118E+02  1.500068E+02  1.500039E+02  1.500022E+02  1.500011E+02  1.500001E+02  1.499993E+02  1.499985E+02
 1.500428E+02  1.500213E+02  1.500119E+02  1.500068E+02  1.500039E+02  1.500022E+02  1.500011E+02  1.500001E+02  1.499993E+02  1.499985E+02


SCALARS pH                   float 1
LOOKUP_TABLE default
 6.144318E+00  6.144286E+00  6.144272E+00  6.144265E+00  6.144260E+00  6.144258E+00  6.144256E+00  6.144255E+00  6.144254E+00  6.144252E+00
 6.144318E+00  6.144286E+00  6.144272E+00  6.144265E+00  6.144260E+00  6.144258E+00  6.144256E+00  6.144255E+00  6.144254E+00  6.144252E+00
 6.144318E+00  6.144286E+00  6.144272E+00  6.144265E+00  6.144260E+00  6.144258E+00  6.144256E+00  6.144255E+00  6.144254E+00  6.144252E+00
 6.144318E+00  6.144286E+00  6.144272E+00  6.144265E+00  6.144260E+00  6.144258E+00  6.144256E+00  6.144255E+00  6.144254E+00  6.144252E+00
 6.144318E+00  6.144286E+00  6.144272E+00  6.144265E+00  6.144260E+00  6.144258E+00  6.144256E+00  6.144255E+00  6.144254E+00  6.144252E+00
 6.144318E+00  6.144286E+00  6.144272E+00  6.144265E+00  6.144260E+00  6.144258E+00  6.144256E+00  6.144255E+00  6.144254E+00  6.144252E+00
 6.144321E+00  6.144286E+00  6.144272E+00  6.144265E+00  6.144260E+00  6.144258E+00  6.144256E+00  6.144255E+00  6.144254E+00  6.144252E+00
 6.144321E+00  6.144286E+00  6.144272E+00  6.144265E+00  6.144260E+00  6.144258E+00  6.144256E+00  6.144255E+00  6.144254E+00  6.144252E+00
 6.144321E+00  6.144286E+00  6.144272E+00  6.144265E+00  6.144260E+00  6.144258E+00  6.144256E+00  6.144255E+00  6.144254E+00  6.144252E+00
 6.144321E+00  6.144286E+00  6.144272E+00  6.144265E+00  6.144260E+00  6.144258E+00  6.144256E+00  6.144255E+00  6.144254E+00  6.144252E+00
 6.144321E+00  6.144286E+00  6.144272E+00  6.144265E+00  6.144260E+00  6.144258E+00  6.144256E+00  6.144255E+00  6.144254E+00  6.144252E+00
 6.144321E+00  6.144286E+00  6.144272E+00  6.144265E+00  6.144260E+00  6.144258E+00  6.144256E+00  6.144255E+00  6.144254E+00  6.144252E+00
 6.144321E+00  6.144286E+00  6.144272E+00  6.144265E+00  6.144260E+00  6.144258E+00  6.144256E+00  6.144255E+00  6.144254E+00  6.144252E+00
 6.144321E+00  6.144286E+00  6.144272E+00  6.144265E+00  6.144260E+00  6.144258E+00  6.144256E+00  6.144255E+00  6.144254E+00  6.144252E+00
 6.144318E+00  6.144286E+00  6.144272E+00  6.144265E+00  6.144260E+00  6.144258E+00  6.144256E+00  6.144255E+00  6.144254E+00  6.144252E+00
 6.144318E+00  6.144286E+00  6.144272E+00  6.144265E+00  6.144261E+00  6.144258E+00  6.144256E+00  6.144255E+00  6.144254E+00  6.144252E+00
 6.144318E+00  6.144286E+00  6.144272E+00  6.144265E+00  6.144261E+00  6.144258E+00  6.144256E+00  6.144255E+00  6.144254E+00  6.144252E+00
 6.144318E+00  6.144286E+00  6.144272E+00  6.144265E+00  6.144261E+00  6.144258E+00  6.144256E+00  6.144255E+00  6.144254E+00  6.144252E+00
 6.144318E+00  6.144286E+00  6.144272E+00  6.144265E+00  6.144261E+00  6.144258E+00  6.144256E+00  6.144255E+00  6.144254E+00  6.144252E+00
 6.144318E+00  6.144286E+00  6.144272E+00  6.144265E+00  6.144261E+00  6.144258E+00  6.144256E+00  6.144255E+00  6.144254E+00  6.144252E+00


SCALARS Total_H+             float 1
LOOKUP_TABLE default
-3.047781E-03 -3.048530E-03 -3.048860E-03 -3.049038E-03 -3.049139E-03 -3.049200E-03 -3.049240E-03 -3.049272E-03 -3.049301E-03 -3.049328E-03
-3.047781E-03 -3.048530E-03 -3.048860E-03 -3.049037E-03 -3.049138E-03 -3.049199E-03 -3.049240E-03 -3.049272E-03 -3.049301E-03 -3.049328E-03
-3.047780E-03 -3.048529E-03 -3.048859E-03 -3.049037E-03 -3.049138E-03 -3.049199E-03 -3.049240E-03 -3.049272E-03 -3.049300E-03 -3.049328E-03
-3.047780E-03 -3.048529E-03 -3.048859E-03 -3.049037E-03 -3.049138E-03 -3.049198E-03 -3.049239E-03 -3.049271E-03 -3.049300E-03 -3.049327E-03
-3.047780E-03 -3.048528E-03 -3.048859E-03 -3.049036E-03 -3.049137E-03 -3.049198E-03 -3.049239E-03 -3.049271E-03 -3.049300E-03 -3.049327E-03
-3.047779E-03 -3.048528E-03 -3.048858E-03 -3.049036E-03 -3.049137E-03 -3.049198E-03 -3.049238E-03 -3.049270E-03 -3.049299E-03 -3.049327E-03
-3.047754E-03 -3.048527E-03 -3.048858E-03 -3.049035E-03 -3.049137E-03 -3.049197E-03 -3.049238E-03 -3.049270E-03 -3.049299E-03 -3.049326E-03
-3.047753E-03 -3.048527E-03 -3.048857E-03 -3.049035E-03 -3.049136E-03 -3.049197E-03 -3.049238E-03 -3.049270E-03 -3.049299E-03 -3.049326E-03
-3.047753E-03 -3.048527E-03 -3.048857E-03 -3.049034E-03 -3.049136E-03 -3.049197E-03 -3.049237E-03 -3.049269E-03 -3.049298E-03 -3.049326E-03
-3.047752E-03 -3.048526E-03 -3.048856E-03 -3.049034E-03 -3.049135E-03 -3.049196E-03 -3.049237E-03 -3.049269E-03 -3.049298E-03 -3.049325E-03
-3.047751E-03 -3.048526E-03 -3.048856E-03 -3.049034E-03 -3.049135E-03 -3.049196E-03 -3.049237E-03 -3.049269E-03 -3.049298E-03 -3.049325E-03
-3.047751E-03 -3.048525E-03 -3.048856E-03 -3.049033E-03 -3.049135E-03 -3.049195E-03 -3.049236E-03 -3.049268E-03 -3.049297E-03 -3.049324E-03
-3.047750E-03 -3.048525E-03 -3.048855E-03 -3.049033E-03 -3.049134E-03 -3.049195E-03 -3.049236E-03 -3.049268E-03 -3.049297E-03 -3.049324E-03
-3.047749E-03 -3.048524E-03 -3.048855E-03 -3.049032E-03 -3.049134E-03 -3.049195E-03 -3.049235E-03 -3.049267E-03 -3.049296E-03 -3.049324E-03
-3.047771E-03 -3.048524E-03 -3.048854E-03 -3.049032E-03 -3.049133E-03 -3.049194E-03 -3.049235E-03 -3.049267E-03 -3.049296E-03 -3.049323E-03
-3.047771E-03 -3.048523E-03 -3.048854E-03 -3.049032E-03 -3.049133E-03 -3.049194E-03 -3.049235E-03 -3.049267E-03 -3.049296E-03 -3.049323E-03
-3.047770E-03 -3.048523E-03 -3.048853E-03 -3.049031E-03 -3.049133E-03 -3.049194E-03 -3.049234E-03 -3.049266E-03 -3.049295E-03 -3.049323E-03
-3.047770E-03 -3.048522E-03 -3.048853E-03 -3.049031E-03 -3.049132E-03 -3.049193E-03 -3.049234E-03 -3.049266E-03 -3.049295E-03 -3.049322E-03
-3.047770E-03 -3.048522E-03 -3.048853E-03 -3.049030E-03 -3.049132E-03 -3.049193E-03 -3.049234E-03 -3.049266E-03 -3.049295E-03 -3.049322E-03
-3.047770E-03 -3.048521E-03 -3.048852E-03 -3.049030E-03 -3.049132E-03 -3.049192E-03 -3.049233E-03 -3.049265E-03 -3.049294E-03 -3.049322E-03


SCALARS Total_SiO2(aq)       float 1
LOOKUP_TABLE default
 1.039570E-02  1.039386E-02  1.039305E-02  1.039262E-02  1.039238E-02  1.039223E-02  1.039213E-02  1.039206E-02  1.039199E-02  1.039192E-02
 1.039570E-02  1.039386E-02  1.039305E-02  1.039262E-02  1.039238E-02  1.039223E-02  1.039213E-02  1.039206E-02  1.039199E-02  1.039192E-02
 1.039570E-02  1.039386E-02  1.039305E-02  1.039262E-02  1.039238E-02  1.039223E-02  1.039213E-02  1.039206E-02  1.039199E-02  1.039192E-02
 1.039570E-02  1.039386E-02  1.039305E-02  1.039262E-02  1.039238E-02  1.039223E-02  1.039213E-02  1.039206E-02  1.039199E-02  1.039192E-02
 1.039570E-02  1.039386E-02  1.039305E-02  1.039262E-02  1.039238E-02  1.039223E-02  1.039213E-02  1.039206E-02  1.039199E-02  1.039192E-02
 1.039570E-02  1.039386E-02  1.039305E-02  1.039262E-02  1.039238E-02  1.039223E-02  1.039214E-02  1.039206E-02  1.039199E-02  1.039192E-02
 1.039593E-02  1.039386E-02  1.039305E-02  1.039262E-02  1.039238E-02  1.039223E-02  1.039214E-02  1.039206E-02  1.039199E-02  1.039192E-02
 1.039593E-02  1.039386E-02  1.039305E-02  1.039262E-02  1.039238E-02  1.039223E-02  1.039214E-02  1.039206E-02  1.039199E-02  1.039192E-02
 1.039593E-02  1.039386E-02  1.039305E-02  1.039262E-02  1.039238E-02  1.039223E-02  1.039214E-02  1.039206E-02  1.039199E-02  1.039192E-02
 1.039593E-02  1.039386E-02  1.039305E-02  1.039262E-02  1.039238E-02  1.039223E-02  1.039214E-02  1.039206E-02  1.039199E-02  1.039192E-02
 1.039593E-02  1.039386E-02  1.039305E-02  1.039262E-02  1.039238E-02  1.039223E-02  1.039214E-02  1.039206E-02  1.039199E-02  1.039192E-02
 1.039593E-02  1.039386E-02  1.039305E-02  1.039262E-02  1.039238E-02  1.039223E-02  1.039214E-02  1.039206E-02  1.039199E-02  1.039192E-02
 1.039594E-02  1.039386E-02  1.039305E-02  1.039262E-02  1.039238E-02  1.039223E-02  1.039214E-02  1.039206E-02  1.039199E-02  1.039192E-02
 1.039594E-02  1.039386E-02  1.039306E-02  1.039262E-02  1.039238E-02  1.039223E-02  1.039214E-02  1.039206E-02  1.039199E-02  1.039192E-02
 1.039572E-02  1.039386E-02  1.039306E-02  1.039262E-02  1.039238E-02  1.039223E-02  1.039214E-02  1.039206E-02  1.039199E-02  1.039192E-02
 1.039572E-02  1.039386E-02  1.039306E-02  1.039262E-02  1.039238E-02  1.039223E-02  1.039214E-02  1.039206E-02  1.039199E-02  1.039192E-02
 1.039572E-02  1.039386E-02  1.039306E-02  1.039262E-02  1.039238E-02  1.039223E-02  1.039214E-02  1.039206E-02  1.039199E-02  1.039192E-02
 1.039572E-02  1.039386E-02  1.039306E-02  1.039262E-02  1.039238E-02  1.039223E-02  1.039214E-02  1.039206E-02  1.039199E-02  1.039192E-02
 1.039572E-02  1.039386E-02  1.039306E-02  1.039262E-02  1.039238E-02  1.039223E-02  1.039214E-02  1.039206E-02  1.039199E-02  1.039192E-02