# vtk DataFile Version 2.0
PFLOTRAN output
ASCII
DATASET UNSTRUCTURED_GRID
POINTS         4242 float
 0.000000E+00  0.000000E+00  0.000000E+00
 2.000000E+02  0.000000E+00  0.000000E+00
 4.000000E+02  0.000000E+00  0.000000E+00
 6.000000E+02  0.000000E+00  0.000000E+00
 8.000000E+02  0.000000E+00  0.000000E+00
 1.000000E+03  0.000000E+00  0.000000E+00
 1.200000E+03  0.000000E+00  0.000000E+00
 1.400000E+03  0.000000E+00  0.000000E+00
 1.600000E+03  0.000000E+00  0.000000E+00
 1.800000E+03  0.000000E+00  0.000000E+00
 2.000000E+03  0.000000E+00  0.000000E+00
 2.200000E+03  0.000000E+00  0.000000E+00
 2.400000E+03  0.000000E+00  0.000000E+00
 2.600000E+03  0.000000E+00  0.000000E+00
 2.800000E+03  0.000000E+00  0.000000E+00
 3.000000E+03  0.000000E+00  0.000000E+00
 3.200000E+03  0.000000E+00  0.000000E+00
 3.400000E+03  0.000000E+00  0.000000E+00
 3.600000E+03  0.000000E+00  0.000000E+00
 3.800000E+03  0.000000E+00  0.000000E+00
 4.000000E+03  0.000000E+00  0.000000E+00
 4.200000E+03  0.000000E+00  0.000000E+00
 4.400000E+03  0.000000E+00  0.000000E+00
 4.600000E+03  0.000000E+00  0.000000E+00
 4.800000E+03  0.000000E+00  0.000000E+00
 5.000000E+03  0.000000E+00  0.000000E+00
 5.200000E+03  0.000000E+00  0.000000E+00
 5.400000E+03  0.000000E+00  0.000000E+00
 5.600000E+03  0.000000E+00  0.000000E+00
 5.800000E+03  0.000000E+00  0.000000E+00
 6.000000E+03  0.000000E+00  0.000000E+00
 6.200000E+03  0.000000E+00  0.000000E+00
 6.400000E+03  0.000000E+00  0.000000E+00
 6.600000E+03  0.000000E+00  0.000000E+00
 6.800000E+03  0.000000E+00  0.000000E+00
 7.000000E+03  0.000000E+00  0.000000E+00
 7.200000E+03  0.000000E+00  0.000000E+00
 7.400000E+03  0.000000E+00  0.000000E+00
 7.600000E+03  0.000000E+00  0.000000E+00
 7.800000E+03  0.000000E+00  0.000000E+00
 8.000000E+03  0.000000E+00  0.000000E+00
 8.200000E+03  0.000000E+00  0.000000E+00
 8.400000E+03  0.000000E+00  0.000000E+00
 8.600000E+03  0.000000E+00  0.000000E+00
 8.800000E+03  0.000000E+00  0.000000E+00
 9.000000E+03  0.000000E+00  0.000000E+00
 9.200000E+03  0.000000E+00  0.000000E+00
 9.400000E+03  0.000000E+00  0.000000E+00
 9.600000E+03  0.000000E+00  0.000000E+00
 9.800000E+03  0.000000E+00  0.000000E+00
 1.000000E+04  0.000000E+00  0.000000E+00
 1.020000E+04  0.000000E+00  0.000000E+00
 1.040000E+04  0.000000E+00  0.000000E+00
 1.060000E+04  0.000000E+00  0.000000E+00
 1.080000E+04  0.000000E+00  0.000000E+00
 1.100000E+04  0.000000E+00  0.000000E+00
 1.120000E+04  0.000000E+00  0.000000E+00
 1.140000E+04  0.000000E+00  0.000000E+00
 1.160000E+04  0.000000E+00  0.000000E+00
 1.180000E+04  0.000000E+00  0.000000E+00
 1.200000E+04  0.000000E+00  0.000000E+00
 1.220000E+04  0.000000E+00  0.000000E+00
 1.240000E+04  0.000000E+00  0.000000E+00
 1.260000E+04  0.000000E+00  0.000000E+00
 1.280000E+04  0.000000E+00  0.000000E+00
 1.300000E+04  0.000000E+00  0.000000E+00
 1.320000E+04  0.000000E+00  0.000000E+00
 1.340000E+04  0.000000E+00  0.000000E+00
 1.360000E+04  0.000000E+00  0.000000E+00
 1.380000E+04  0.000000E+00  0.000000E+00
 1.400000E+04  0.000000E+00  0.000000E+00
 1.420000E+04  0.000000E+00  0.000000E+00
 1.440000E+04  0.000000E+00  0.000000E+00
 1.460000E+04  0.000000E+00  0.000000E+00
 1.480000E+04  0.000000E+00  0.000000E+00
 1.500000E+04  0.000000E+00  0.000000E+00
 1.520000E+04  0.000000E+00  0.000000E+00
 1.540000E+04  0.000000E+00  0.000000E+00
 1.560000E+04  0.000000E+00  0.000000E+00
 1.580000E+04  0.000000E+00  0.000000E+00
 1.600000E+04  0.000000E+00  0.000000E+00
 1.620000E+04  0.000000E+00  0.000000E+00
 1.640000E+04  0.000000E+00  0.000000E+00
 1.660000E+04  0.000000E+00  0.000000E+00
 1.680000E+04  0.000000E+00  0.000000E+00
 1.700000E+04  0.000000E+00  0.000000E+00
 1.720000E+04  0.000000E+00  0.000000E+00
 1.740000E+04  0.000000E+00  0.000000E+00
 1.760000E+04  0.000000E+00  0.000000E+00
 1.780000E+04  0.000000E+00  0.000000E+00
 1.800000E+04  0.000000E+00  0.000000E+00
 1.820000E+04  0.000000E+00  0.000000E+00
 1.840000E+04  0.000000E+00  0.000000E+00
 1.860000E+04  0.000000E+00  0.000000E+00
 1.880000E+04  0.000000E+00  0.000000E+00
 1.900000E+04  0.000000E+00  0.000000E+00
 1.920000E+04  0.000000E+00  0.000000E+00
 1.940000E+04  0.000000E+00  0.000000E+00
 1.960000E+04  0.000000E+00  0.000000E+00
 1.980000E+04  0.000000E+00  0.000000E+00
 2.000000E+04  0.000000E+00  0.000000E+00
 0.000000E+00  1.000000E+00  0.000000E+00
 2.000000E+02  1.000000E+00  0.000000E+00
 4.000000E+02  1.000000E+00  0.000000E+00
 6.000000E+02  1.000000E+00  0.000000E+00
 8.000000E+02  1.000000E+00  0.000000E+00
 1.000000E+03  1.000000E+00  0.000000E+00
 1.200000E+03  1.000000E+00  0.000000E+00
 1.400000E+03  1.000000E+00  0.000000E+00
 1.600000E+03  1.000000E+00  0.000000E+00
 1.800000E+03  1.000000E+00  0.000000E+00
 2.000000E+03  1.000000E+00  0.000000E+00
 2.200000E+03  1.000000E+00  0.000000E+00
 2.400000E+03  1.000000E+00  0.000000E+00
 2.600000E+03  1.000000E+00  0.000000E+00
 2.800000E+03  1.000000E+00  0.000000E+00
 3.000000E+03  1.000000E+00  0.000000E+00
 3.200000E+03  1.000000E+00  0.000000E+00
 3.400000E+03  1.000000E+00  0.000000E+00
 3.600000E+03  1.000000E+00  0.000000E+00
 3.800000E+03  1.000000E+00  0.000000E+00
 4.000000E+03  1.000000E+00  0.000000E+00
 4.200000E+03  1.000000E+00  0.000000E+00
 4.400000E+03  1.000000E+00  0.000000E+00
 4.600000E+03  1.000000E+00  0.000000E+00
 4.800000E+03  1.000000E+00  0.000000E+00
 5.000000E+03  1.000000E+00  0.000000E+00
 5.200000E+03  1.000000E+00  0.000000E+00
 5.400000E+03  1.000000E+00  0.000000E+00
 5.600000E+03  1.000000E+00  0.000000E+00
 5.800000E+03  1.000000E+00  0.000000E+00
 6.000000E+03  1.000000E+00  0.000000E+00
 6.200000E+03  1.000000E+00  0.000000E+00
 6.400000E+03  1.000000E+00  0.000000E+00
 6.600000E+03  1.000000E+00  0.000000E+00
 6.800000E+03  1.000000E+00  0.000000E+00
 7.000000E+03  1.000000E+00  0.000000E+00
 7.200000E+03  1.000000E+00  0.000000E+00
 7.400000E+03  1.000000E+00  0.000000E+00
 7.600000E+03  1.000000E+00  0.000000E+00
 7.800000E+03  1.000000E+00  0.000000E+00
 8.000000E+03  1.000000E+00  0.000000E+00
 8.200000E+03  1.000000E+00  0.000000E+00
 8.400000E+03  1.000000E+00  0.000000E+00
 8.600000E+03  1.000000E+00  0.000000E+00
 8.800000E+03  1.000000E+00  0.000000E+00
 9.000000E+03  1.000000E+00  0.000000E+00
 9.200000E+03  1.000000E+00  0.000000E+00
 9.400000E+03  1.000000E+00  0.000000E+00
 9.600000E+03  1.000000E+00  0.000000E+00
 9.800000E+03  1.000000E+00  0.000000E+00
 1.000000E+04  1.000000E+00  0.000000E+00
 1.020000E+04  1.000000E+00  0.000000E+00
 1.040000E+04  1.000000E+00  0.000000E+00
 1.060000E+04  1.000000E+00  0.000000E+00
 1.080000E+04  1.000000E+00  0.000000E+00
 1.100000E+04  1.000000E+00  0.000000E+00
 1.120000E+04  1.000000E+00  0.000000E+00
 1.140000E+04  1.000000E+00  0.000000E+00
 1.160000E+04  1.000000E+00  0.000000E+00
 1.180000E+04  1.000000E+00  0.000000E+00
 1.200000E+04  1.000000E+00  0.000000E+00
 1.220000E+04  1.000000E+00  0.000000E+00
 1.240000E+04  1.000000E+00  0.000000E+00
 1.260000E+04  1.000000E+00  0.000000E+00
 1.280000E+04  1.000000E+00  0.000000E+00
 1.300000E+04  1.000000E+00  0.000000E+00
 1.320000E+04  1.000000E+00  0.000000E+00
 1.340000E+04  1.000000E+00  0.000000E+00
 1.360000E+04  1.000000E+00  0.000000E+00
 1.380000E+04  1.000000E+00  0.000000E+00
 1.400000E+04  1.000000E+00  0.000000E+00
 1.420000E+04  1.000000E+00  0.000000E+00
 1.440000E+04  1.000000E+00  0.000000E+00
 1.460000E+04  1.000000E+00  0.000000E+00
 1.480000E+04  1.000000E+00  0.000000E+00
 1.500000E+04  1.000000E+00  0.000000E+00
 1.520000E+04  1.000000E+00  0.000000E+00
 1.540000E+04  1.000000E+00  0.000000E+00
 1.560000E+04  1.000000E+00  0.000000E+00
 1.580000E+04  1.000000E+00  0.000000E+00
 1.600000E+04  1.000000E+00  0.000000E+00
 1.620000E+04  1.000000E+00  0.000000E+00
 1.640000E+04  1.000000E+00  0.000000E+00
 1.660000E+04  1.000000E+00  0.000000E+00
 1.680000E+04  1.000000E+00  0.000000E+00
 1.700000E+04  1.000000E+00  0.000000E+00
 1.720000E+04  1.000000E+00  0.000000E+00
 1.740000E+04  1.000000E+00  0.000000E+00
 1.760000E+04  1.000000E+00  0.000000E+00
 1.780000E+04  1.000000E+00  0.000000E+00
 1.800000E+04  1.000000E+00  0.000000E+00
 1.820000E+04  1.000000E+00  0.000000E+00
 1.840000E+04  1.000000E+00  0.000000E+00
 1.860000E+04  1.000000E+00  0.000000E+00
 1.880000E+04  1.000000E+00  0.000000E+00
 1.900000E+04  1.000000E+00  0.000000E+00
 1.920000E+04  1.000000E+00  0.000000E+00
 1.940000E+04  1.000000E+00  0.000000E+00
 1.960000E+04  1.000000E+00  0.000000E+00
 1.980000E+04  1.000000E+00  0.000000E+00
 2.000000E+04  1.000000E+00  0.000000E+00
 0.000000E+00  0.000000E+00  1.500000E+01
 2.000000E+02  0.000000E+00  1.500000E+01
 4.000000E+02  0.000000E+00  1.500000E+01
 6.000000E+02  0.000000E+00  1.500000E+01
 8.000000E+02  0.000000E+00  1.500000E+01
 1.000000E+03  0.000000E+00  1.500000E+01
 1.200000E+03  0.000000E+00  1.500000E+01
 1.400000E+03  0.000000E+00  1.500000E+01
 1.600000E+03  0.000000E+00  1.500000E+01
 1.800000E+03  0.000000E+00  1.500000E+01
 2.000000E+03  0.000000E+00  1.500000E+01
 2.200000E+03  0.000000E+00  1.500000E+01
 2.400000E+03  0.000000E+00  1.500000E+01
 2.600000E+03  0.000000E+00  1.500000E+01
 2.800000E+03  0.000000E+00  1.500000E+01
 3.000000E+03  0.000000E+00  1.500000E+01
 3.200000E+03  0.000000E+00  1.500000E+01
 3.400000E+03  0.000000E+00  1.500000E+01
 3.600000E+03  0.000000E+00  1.500000E+01
 3.800000E+03  0.000000E+00  1.500000E+01
 4.000000E+03  0.000000E+00  1.500000E+01
 4.200000E+03  0.000000E+00  1.500000E+01
 4.400000E+03  0.000000E+00  1.500000E+01
 4.600000E+03  0.000000E+00  1.500000E+01
 4.800000E+03  0.000000E+00  1.500000E+01
 5.000000E+03  0.000000E+00  1.500000E+01
 5.200000E+03  0.000000E+00  1.500000E+01
 5.400000E+03  0.000000E+00  1.500000E+01
 5.600000E+03  0.000000E+00  1.500000E+01
 5.800000E+03  0.000000E+00  1.500000E+01
 6.000000E+03  0.000000E+00  1.500000E+01
 6.200000E+03  0.000000E+00  1.500000E+01
 6.400000E+03  0.000000E+00  1.500000E+01
[...]
CELL_DATA     2000
SCALARS Vlx                  float 1
LOOKUP_TABLE default
 3.759471E+01  3.669097E+01  3.212535E+01  2.600664E+01  2.108213E+01  1.748305E+01  1.485733E+01  1.289394E+01  1.138189E+01  1.018520E+01
 9.215603E+00  8.414399E+00  7.741320E+00  7.167936E+00  6.673634E+00  6.243111E+00  5.864771E+00  5.529670E+00  5.230795E+00  4.962575E+00
 4.720522E+00  4.500986E+00  4.300964E+00  4.117965E+00  3.949905E+00  3.795027E+00  3.651838E+00  3.519062E+00  3.395605E+00  3.280518E+00
 3.172977E+00  3.072265E+00  2.977751E+00  2.888879E+00  2.805160E+00  2.726158E+00  2.651484E+00  2.580794E+00  2.513776E+00  2.450151E+00
 2.389669E+00  2.332102E+00  2.277244E+00  2.224908E+00  2.174925E+00  2.127139E+00  2.081409E+00  2.037604E+00  1.995606E+00  1.955305E+00
 1.916600E+00  1.879399E+00  1.843615E+00  1.809168E+00  1.775986E+00  1.744001E+00  1.713147E+00  1.683367E+00  1.654605E+00  1.626810E+00
 1.599934E+00  1.573932E+00  1.548763E+00  1.524386E+00  1.500765E+00  1.477866E+00  1.455656E+00  1.434104E+00  1.413181E+00  1.392860E+00
 1.373116E+00  1.353925E+00  1.335263E+00  1.317109E+00  1.299443E+00  1.282244E+00  1.265496E+00  1.249179E+00  1.233279E+00  1.217779E+00
 1.202664E+00  1.187919E+00  1.173533E+00  1.159491E+00  1.145782E+00  1.132393E+00  1.119315E+00  1.106535E+00  1.094044E+00  1.081832E+00
 1.069891E+00  1.058211E+00  1.046784E+00  1.035601E+00  1.024657E+00  1.013945E+00  1.003459E+00  9.931973E-01  9.831639E-01  9.733954E-01
 4.051746E+01  3.830394E+01  3.266610E+01  2.615919E+01  2.112406E+01  1.749519E+01  1.486143E+01  1.289579E+01  1.138306E+01  1.018611E+01
 9.216391E+00  8.415108E+00  7.741969E+00  7.168537E+00  6.674193E+00  6.243633E+00  5.865262E+00  5.530133E+00  5.231233E+00  4.962990E+00
 4.720917E+00  4.501362E+00  4.301324E+00  4.118310E+00  3.950236E+00  3.795345E+00  3.652143E+00  3.519357E+00  3.395889E+00  3.280792E+00
 3.173243E+00  3.072522E+00  2.978000E+00  2.889121E+00  2.805395E+00  2.726386E+00  2.651706E+00  2.581010E+00  2.513986E+00  2.450356E+00
 2.389869E+00  2.332297E+00  2.277434E+00  2.225094E+00  2.175107E+00  2.127317E+00  2.081583E+00  2.037775E+00  1.995773E+00  1.955468E+00
 1.916760E+00  1.879556E+00  1.843769E+00  1.809320E+00  1.776135E+00  1.744146E+00  1.713290E+00  1.683508E+00  1.654743E+00  1.626946E+00
 1.600068E+00  1.574064E+00  1.548892E+00  1.524513E+00  1.500891E+00  1.477990E+00  1.455777E+00  1.434224E+00  1.413299E+00  1.392977E+00
 1.373231E+00  1.354038E+00  1.335375E+00  1.317219E+00  1.299551E+00  1.282351E+00  1.265601E+00  1.249284E+00  1.233382E+00  1.217880E+00
 1.202764E+00  1.188019E+00  1.173631E+00  1.159588E+00  1.145878E+00  1.132488E+00  1.119408E+00  1.106627E+00  1.094135E+00  1.081923E+00
 1.069980E+00  1.058299E+00  1.046871E+00  1.035688E+00  1.024743E+00  1.014029E+00  1.003542E+00  9.932793E-01  9.832425E-01  9.734482E-01
 4.672780E+01  4.164158E+01  3.372991E+01  2.645142E+01  2.120264E+01  1.751700E+01  1.486811E+01  1.289834E+01  1.138441E+01  1.018707E+01
 9.217193E+00  8.415821E+00  7.742620E+00  7.169138E+00  6.674752E+00  6.244156E+00  5.865753E+00  5.530595E+00  5.231671E+00  4.963405E+00
 4.721312E+00  4.501739E+00  4.301684E+00  4.118654E+00  3.950566E+00  3.795662E+00  3.652449E+00  3.519651E+00  3.396173E+00  3.281067E+00
 3.173508E+00  3.072779E+00  2.978249E+00  2.889363E+00  2.805629E+00  2.726614E+00  2.651928E+00  2.581226E+00  2.514196E+00  2.450561E+00
 2.390069E+00  2.332492E+00  2.277625E+00  2.225281E+00  2.175289E+00  2.127495E+00  2.081757E+00  2.037945E+00  1.995940E+00  1.955632E+00
 1.916921E+00  1.879713E+00  1.843923E+00  1.809471E+00  1.776284E+00  1.744292E+00  1.713434E+00  1.683648E+00  1.654882E+00  1.627082E+00
 1.600202E+00  1.574195E+00  1.549022E+00  1.524641E+00  1.501016E+00  1.478113E+00  1.455899E+00  1.434343E+00  1.413417E+00  1.393093E+00
 1.373346E+00  1.354151E+00  1.335486E+00  1.317329E+00  1.299660E+00  1.282459E+00  1.265707E+00  1.249388E+00  1.233485E+00  1.217982E+00
 1.202865E+00  1.188118E+00  1.173729E+00  1.159685E+00  1.145974E+00  1.132583E+00  1.119502E+00  1.106720E+00  1.094227E+00  1.082013E+00
 1.070070E+00  1.058388E+00  1.046958E+00  1.035774E+00  1.024828E+00  1.014114E+00  1.003625E+00  9.933602E-01  9.833189E-01  9.735052E-01
 5.701494E+01  4.694118E+01  3.527998E+01  2.686157E+01  2.131099E+01  1.754657E+01  1.487685E+01  1.290143E+01  1.138591E+01  1.018807E+01
 9.218005E+00  8.416536E+00  7.743271E+00  7.169738E+00  6.675310E+00  6.244678E+00  5.866243E+00  5.531058E+00  5.232108E+00  4.963820E+00
 4.721707E+00  4.502115E+00  4.302043E+00  4.118999E+00  3.950897E+00  3.795979E+00  3.652754E+00  3.519946E+00  3.396457E+00  3.281341E+00
 3.173773E+00  3.073036E+00  2.978498E+00  2.889604E+00  2.805864E+00  2.726842E+00  2.652150E+00  2.581441E+00  2.514407E+00  2.450766E+00
 2.390269E+00  2.332687E+00  2.277815E+00  2.225467E+00  2.175471E+00  2.127673E+00  2.081931E+00  2.038115E+00  1.996107E+00  1.955795E+00
 1.917081E+00  1.879870E+00  1.844077E+00  1.809622E+00  1.776432E+00  1.744438E+00  1.713577E+00  1.683789E+00  1.655020E+00  1.627218E+00
 1.600335E+00  1.574327E+00  1.549151E+00  1.524768E+00  1.501142E+00  1.478237E+00  1.456021E+00  1.434463E+00  1.413535E+00  1.393210E+00
 1.373461E+00  1.354265E+00  1.335598E+00  1.317439E+00  1.299769E+00  1.282566E+00  1.265813E+00  1.249493E+00  1.233588E+00  1.218084E+00
 1.202965E+00  1.188217E+00  1.173827E+00  1.159782E+00  1.146069E+00  1.132677E+00  1.119595E+00  1.106812E+00  1.094318E+00  1.082104E+00
 1.070159E+00  1.058476E+00  1.047046E+00  1.035861E+00  1.024914E+00  1.014198E+00  1.003708E+00  9.934402E-01  9.833938E-01  9.735653E-01
 7.271219E+01  5.458251E+01  3.724424E+01  2.735644E+01  2.143931E+01  1.758119E+01  1.488692E+01  1.290489E+01  1.138751E+01  1.018910E+01
 9.218825E+00  8.417254E+00  7.743922E+00  7.170339E+00  6.675869E+00  6.245201E+00  5.866734E+00  5.531520E+00  5.232546E+00  4.964235E+00
 4.722101E+00  4.502492E+00  4.302403E+00  4.119343E+00  3.951227E+00  3.796297E+00  3.653059E+00  3.520240E+00  3.396741E+00  3.281615E+00
 3.174039E+00  3.073293E+00  2.978747E+00  2.889846E+00  2.806098E+00  2.727070E+00  2.652371E+00  2.581657E+00  2.514617E+00  2.450971E+00
 2.390468E+00  2.332882E+00  2.278006E+00  2.225652E+00  2.175653E+00  2.127851E+00  2.082105E+00  2.038286E+00  1.996273E+00  1.955959E+00
 1.917241E+00  1.880027E+00  1.844231E+00  1.809773E+00  1.776580E+00  1.744584E+00  1.713720E+00  1.683930E+00  1.655158E+00  1.627354E+00
 1.600469E+00  1.574459E+00  1.549281E+00  1.524896E+00  1.501267E+00  1.478360E+00  1.456142E+00  1.434583E+00  1.413653E+00  1.393326E+00
 1.373576E+00  1.354378E+00  1.335710E+00  1.317549E+00  1.299877E+00  1.282673E+00  1.265919E+00  1.249597E+00  1.233691E+00  1.218186E+00
 1.203066E+00  1.188317E+00  1.173925E+00  1.159879E+00  1.146165E+00  1.132772E+00  1.119689E+00  1.106905E+00  1.094410E+00  1.082194E+00
 1.070249E+00  1.058564E+00  1.047133E+00  1.035947E+00  1.024999E+00  1.014282E+00  1.003790E+00  9.935195E-01  9.834679E-01  9.736279E-01
 9.590468E+01  6.511854E+01  3.949157E+01  2.789160E+01  2.157554E+01  1.761766E+01  1.489745E+01  1.290847E+01  1.138914E+01  1.019014E+01
 9.219647E+00  8.417972E+00  7.744573E+00  7.170939E+00  6.676427E+00  6.245723E+00  5.867224E+00  5.531983E+00  5.232983E+00  4.964650E+00
 4.722496E+00  4.502868E+00  4.302762E+00  4.119687E+00  3.951557E+00  3.796614E+00  3.653365E+00  3.520534E+00  3.397025E+00  3.281889E+00
 3.174304E+00  3.073549E+00  2.978996E+00  2.890087E+00  2.806333E+00  2.727297E+00  2.652593E+00  2.581873E+00  2.514827E+00  2.451176E+00
 2.390668E+00  2.333077E+00  2.278196E+00  2.225838E+00  2.175834E+00  2.128028E+00  2.082279E+00  2.038456E+00  1.996440E+00  1.956122E+00
 1.917401E+00  1.880184E+00  1.844385E+00  1.809925E+00  1.776729E+00  1.744729E+00  1.713863E+00  1.684070E+00  1.655296E+00  1.627490E+00
 1.600603E+00  1.574590E+00  1.549410E+00  1.525023E+00  1.501393E+00  1.478484E+00  1.456264E+00  1.434703E+00  1.413771E+00  1.393442E+00
 1.373690E+00  1.354491E+00  1.335821E+00  1.317660E+00  1.299986E+00  1.282780E+00  1.266024E+00  1.249701E+00  1.233794E+00  1.218288E+00
 1.203166E+00  1.188416E+00  1.174023E+00  1.159976E+00  1.146261E+00  1.132867E+00  1.119782E+00  1.106997E+00  1.094501E+00  1.082284E+00
 1.070338E+00  1.058653E+00  1.047220E+00  1.036033E+00  1.025084E+00  1.014365E+00  1.003872E+00  9.935982E-01  9.835413E-01  9.736923E-01
 1.296975E+02  7.929909E+01  4.179362E+01  2.841324E+01  2.170643E+01  1.765256E+01  1.490754E+01  1.291192E+01  1.139074E+01  1.019117E+01
 9.220466E+00  8.418689E+00  7.745224E+00  7.171539E+00  6.676985E+00  6.246244E+00  5.867714E+00  5.532445E+00  5.233420E+00  4.965065E+00
 4.722890E+00  4.503244E+00  4.303122E+00  4.120031E+00  3.951887E+00  3.796931E+00  3.653670E+00  3.520828E+00  3.397308E+00  3.282163E+00
 3.174569E+00  3.073806E+00  2.979244E+00  2.890328E+00  2.806567E+00  2.727525E+00  2.652814E+00  2.582088E+00  2.515037E+00  2.451380E+00
 2.390868E+00  2.333271E+00  2.278386E+00  2.226024E+00  2.176016E+00  2.128206E+00  2.082453E+00  2.038626E+00  1.996607E+00  1.956285E+00
 1.917561E+00  1.880341E+00  1.844539E+00  1.810076E+00  1.776877E+00  1.744875E+00  1.714006E+00  1.684211E+00  1.655435E+00  1.627626E+00
 1.600736E+00  1.574721E+00  1.549539E+00  1.525150E+00  1.501518E+00  1.478607E+00  1.456386E+00  1.434823E+00  1.413889E+00  1.393559E+00
 1.373805E+00  1.354604E+00  1.335933E+00  1.317769E+00  1.300094E+00  1.282887E+00  1.266130E+00  1.249806E+00  1.233897E+00  1.218389E+00
 1.203267E+00  1.188515E+00  1.174121E+00  1.160073E+00  1.146356E+00  1.132961E+00  1.119876E+00  1.107090E+00  1.094592E+00  1.082375E+00
 1.070427E+00  1.058741E+00  1.047308E+00  1.036119E+00  1.025169E+00  1.014449E+00  1.003953E+00  9.936765E-01  9.836145E-01  9.737580E-01
 1.517442E+02  8.913894E+01  4.376577E+01  2.886361E+01  2.181885E+01  1.768255E+01  1.491633E+01  1.291502E+01  1.139224E+01  1.019217E+01
 9.221278E+00  8.419403E+00  7.745874E+00  7.172139E+00  6.677543E+00  6.246766E+00  5.868204E+00  5.532906E+00  5.233857E+00  4.965479E+00
 4.723285E+00  4.503620E+00  4.303481E+00  4.120375E+00  3.952217E+00  3.797248E+00  3.653975E+00  3.521122E+00  3.397592E+00  3.282437E+00
 3.174834E+00  3.074063E+00  2.979493E+00  2.890569E+00  2.806801E+00  2.727753E+00  2.653036E+00  2.582304E+00  2.515247E+00  2.451585E+00
 2.391067E+00  2.333466E+00  2.278576E+00  2.226210E+00  2.176197E+00  2.128384E+00  2.082626E+00  2.038796E+00  1.996773E+00  1.956449E+00
 1.917721E+00  1.880498E+00  1.844693E+00  1.810227E+00  1.777025E+00  1.745021E+00  1.714149E+00  1.684351E+00  1.655573E+00  1.627761E+00
 1.600870E+00  1.574853E+00  1.549668E+00  1.525278E+00  1.501643E+00  1.478730E+00  1.456507E+00  1.434942E+00  1.414007E+00  1.393675E+00
 1.373920E+00  1.354717E+00  1.336044E+00  1.317879E+00  1.300203E+00  1.282994E+00  1.266236E+00  1.249910E+00  1.234000E+00  1.218491E+00
 1.203367E+00  1.188614E+00  1.174219E+00  1.160169E+00  1.146452E+00  1.133056E+00  1.119969E+00  1.107182E+00  1.094684E+00  1.082465E+00
 1.070516E+00  1.058829E+00  1.047395E+00  1.036205E+00  1.025253E+00  1.014532E+00  1.004034E+00  9.937543E-01  9.836874E-01  9.738246E-01
 1.649794E+02  9.532810E+01  4.518206E+01  2.919365E+01  2.190143E+01  1.770479E+01  1.492305E+01  1.291757E+01  1.139359E+01  1.019313E+01
 9.222077E+00  8.420115E+00  7.746523E+00  7.172739E+00  6.678101E+00  6.247287E+00  5.868694E+00  5.533368E+00  5.234294E+00  4.965893E+00
 4.723679E+00  4.503995E+00  4.303840E+00  4.120719E+00  3.952547E+00  3.797565E+00  3.654279E+00  3.521415E+00  3.397875E+00  3.282711E+00
 3.175099E+00  3.074319E+00  2.979741E+00  2.890811E+00  2.807035E+00  2.727980E+00  2.653257E+00  2.582519E+00  2.515456E+00  2.451789E+00
 2.391267E+00  2.333661E+00  2.278766E+00  2.226396E+00  2.176379E+00  2.128561E+00  2.082800E+00  2.038966E+00  1.996940E+00  1.956612E+00
 1.917881E+00  1.880655E+00  1.844847E+00  1.810378E+00  1.777174E+00  1.745166E+00  1.714292E+00  1.684492E+00  1.655711E+00  1.627897E+00
 1.601003E+00  1.574984E+00  1.549798E+00  1.525405E+00  1.501768E+00  1.478854E+00  1.456629E+00  1.435062E+00  1.414125E+00  1.393791E+00
 1.374034E+00  1.354830E+00  1.336155E+00  1.317989E+00  1.300311E+00  1.283101E+00  1.266341E+00  1.250014E+00  1.234103E+00  1.218592E+00
 1.203467E+00  1.188713E+00  1.174317E+00  1.160266E+00  1.146548E+00  1.133150E+00  1.120063E+00  1.107274E+00  1.094775E+00  1.082555E+00
 1.070606E+00  1.058917E+00  1.047482E+00  1.036291E+00  1.025338E+00  1.014615E+00  1.004115E+00  9.938320E-01  9.837602E-01  9.738919E-01
 1.711880E+02  9.831747E+01  4.591914E+01  2.936875E+01  2.194583E+01  1.771720E+01  1.492718E+01  1.291942E+01  1.139475E+01  1.019404E+01
 9.222863E+00  8.420822E+00  7.747171E+00  7.173337E+00  6.678658E+00  6.247809E+00  5.869184E+00  5.533830E+00  5.234730E+00  4.966308E+00
 4.724073E+00  4.504371E+00  4.304199E+00  4.121062E+00  3.952876E+00  3.797881E+00  3.654584E+00  3.521709E+00  3.398158E+00  3.282985E+00
 3.175363E+00  3.074575E+00  2.979990E+00  2.891052E+00  2.807269E+00  2.728208E+00  2.653478E+00  2.582734E+00  2.515666E+00  2.451994E+00
 2.391466E+00  2.333855E+00  2.278956E+00  2.226581E+00  2.176560E+00  2.128738E+00  2.082974E+00  2.039136E+00  1.997106E+00  1.956775E+00
 1.918041E+00  1.880812E+00  1.845001E+00  1.810529E+00  1.777322E+00  1.745312E+00  1.714435E+00  1.684632E+00  1.655849E+00  1.628033E+00
 1.601137E+00  1.575115E+00  1.549927E+00  1.525532E+00  1.501894E+00  1.478977E+00  1.456750E+00  1.435182E+00  1.414243E+00  1.393907E+00
 1.374149E+00  1.354943E+00  1.336267E+00  1.318099E+00  1.300419E+00  1.283208E+00  1.266447E+00  1.250118E+00  1.234206E+00  1.218694E+00
 1.203568E+00  1.188812E+00  1.174415E+00  1.160363E+00  1.146643E+00  1.133245E+00  1.120156E+00  1.107366E+00  1.094866E+00  1.082645E+00
 1.070695E+00  1.059005E+00  1.047569E+00  1.036377E+00  1.025423E+00  1.014698E+00  1.004196E+00  9.939095E-01  9.838330E-01  9.739595E-01
 1.711931E+02  9.832198E+01  4.592252E+01  2.937113E+01  2.194764E+01  1.771867E+01  1.492842E+01  1.292050E+01  1.139570E+01  1.019489E+01
 9.223632E+00  8.421524E+00  7.747817E+00  7.173936E+00  6.679215E+00  6.248330E+00  5.869673E+00  5.534291E+00  5.235167E+00  4.966722E+00
 4.724466E+00  4.504747E+00  4.304557E+00  4.121406E+00  3.953206E+00  3.798198E+00  3.654889E+00  3.522002E+00  3.398442E+00  3.283258E+00
 3.175628E+00  3.074831E+00  2.980238E+00  2.891292E+00  2.807503E+00  2.728435E+00  2.653699E+00  2.582950E+00  2.515876E+00  2.452198E+00
 2.391665E+00  2.334050E+00  2.279146E+00  2.226767E+00  2.176742E+00  2.128916E+00  2.083147E+00  2.039306E+00  1.997273E+00  1.956938E+00
 1.918201E+00  1.880968E+00  1.845154E+00  1.810679E+00  1.777470E+00  1.745457E+00  1.714578E+00  1.684773E+00  1.655987E+00  1.628168E+00
 1.601270E+00  1.575247E+00  1.550056E+00  1.525659E+00  1.502019E+00  1.479100E+00  1.456871E+00  1.435301E+00  1.414361E+00  1.394023E+00
 1.374263E+00  1.355056E+00  1.336378E+00  1.318209E+00  1.300528E+00  1.283315E+00  1.266552E+00  1.250222E+00  1.234309E+00  1.218796E+00
 1.203668E+00  1.188911E+00  1.174513E+00  1.160459E+00  1.146739E+00  1.133339E+00  1.120249E+00  1.107459E+00  1.094957E+00  1.082736E+00
 1.070784E+00  1.059094E+00  1.047656E+00  1.036463E+00  1.025507E+00  1.014781E+00  1.004276E+00  9.939869E-01  9.839057E-01  9.740271E-01
 1.650007E+02  9.534425E+01  4.519263E+01  2.920083E+01  2.190685E+01  1.770920E+01  1.492677E+01  1.292080E+01  1.139644E+01  1.019568E+01
 9.224385E+00  8.422222E+00  7.748462E+00  7.174533E+00  6.679771E+00  6.248850E+00  5.870162E+00  5.534752E+00  5.235603E+00  4.967136E+00
 4.724860E+00  4.505122E+00  4.304916E+00  4.121749E+00  3.953535E+00  3.798514E+00  3.655193E+00  3.522296E+00  3.398725E+00  3.283532E+00
 3.175892E+00  3.075088E+00  2.980486E+00  2.891533E+00  2.807737E+00  2.728662E+00  2.653920E+00  2.583165E+00  2.516085E+00  2.452402E+00
 2.391864E+00  2.334244E+00  2.279336E+00  2.226952E+00  2.176923E+00  2.129093E+00  2.083321E+00  2.039476E+00  1.997439E+00  1.957101E+00
 1.918361E+00  1.881125E+00  1.845308E+00  1.810830E+00  1.777618E+00  1.745602E+00  1.714720E+00  1.684913E+00  1.656125E+00  1.628304E+00
 1.601403E+00  1.575378E+00  1.550185E+00  1.525786E+00  1.502144E+00  1.479223E+00  1.456993E+00  1.435421E+00  1.414479E+00  1.394140E+00
 1.374378E+00  1.355168E+00  1.336489E+00  1.318319E+00  1.300636E+00  1.283422E+00  1.266658E+00  1.250327E+00  1.234412E+00  1.218897E+00
 1.203768E+00  1.189010E+00  1.174611E+00  1.160556E+00  1.146834E+00  1.133433E+00  1.120342E+00  1.107551E+00  1.095049E+00  1.082826E+00
 1.070873E+00  1.059182E+00  1.047743E+00  1.036549E+00  1.025592E+00  1.014864E+00  1.004357E+00  9.940643E-01  9.839784E-01  9.740947E-01
 1.517795E+02  8.916548E+01  4.378305E+01  2.887545E+01  2.182785E+01  1.768988E+01  1.492253E+01  1.292040E+01  1.139699E+01  1.019642E+01
 9.225124E+00  8.422915E+00  7.749105E+00  7.175131E+00  6.680328E+00  6.249371E+00  5.870651E+00  5.535213E+00  5.236039E+00  4.967549E+00
 4.725254E+00  4.505497E+00  4.305275E+00  4.122092E+00  3.953864E+00  3.798830E+00  3.655498E+00  3.522589E+00  3.399008E+00  3.283805E+00
 3.176157E+00  3.075344E+00  2.980735E+00  2.891774E+00  2.807971E+00  2.728889E+00  2.654141E+00  2.583380E+00  2.516295E+00  2.452606E+00
 2.392063E+00  2.334438E+00  2.279526E+00  2.227137E+00  2.177104E+00  2.129270E+00  2.083494E+00  2.039645E+00  1.997605E+00  1.957264E+00
 1.918520E+00  1.881282E+00  1.845462E+00  1.810981E+00  1.777766E+00  1.745748E+00  1.714863E+00  1.685053E+00  1.656262E+00  1.628440E+00
 1.601537E+00  1.575509E+00  1.550314E+00  1.525913E+00  1.502269E+00  1.479347E+00  1.457114E+00  1.435540E+00  1.414596E+00  1.394256E+00
 1.374492E+00  1.355281E+00  1.336601E+00  1.318428E+00  1.300744E+00  1.283529E+00  1.266763E+00  1.250431E+00  1.234514E+00  1.218998E+00
 1.203868E+00  1.189109E+00  1.174709E+00  1.160653E+00  1.146930E+00  1.133528E+00  1.120436E+00  1.107643E+00  1.095140E+00  1.082916E+00
 1.070962E+00  1.059270E+00  1.047830E+00  1.036635E+00  1.025676E+00  1.014947E+00  1.004438E+00  9.941418E-01  9.840511E-01  9.741618E-01
 1.297435E+02  7.933403E+01  4.181690E+01  2.842952E+01  2.171895E+01  1.766279E+01  1.491622E+01  1.291945E+01  1.139739E+01  1.019712E+01
 9.225851E+00  8.423606E+00  7.749747E+00  7.175727E+00  6.680884E+00  6.249891E+00  5.871140E+00  5.535674E+00  5.236475E+00  4.967963E+00
 4.725647E+00  4.505872E+00  4.305633E+00  4.122436E+00  3.954193E+00  3.799147E+00  3.655802E+00  3.522882E+00  3.399291E+00  3.284078E+00
 3.176421E+00  3.075600E+00  2.980983E+00  2.892015E+00  2.808205E+00  2.729116E+00  2.654362E+00  2.583595E+00  2.516504E+00  2.452810E+00
 2.392263E+00  2.334633E+00  2.279715E+00  2.227323E+00  2.177285E+00  2.129448E+00  2.083667E+00  2.039815E+00  1.997771E+00  1.957427E+00
 1.918680E+00  1.881438E+00  1.845615E+00  1.811132E+00  1.777914E+00  1.745893E+00  1.715006E+00  1.685193E+00  1.656400E+00  1.628575E+00
 1.601670E+00  1.575640E+00  1.550443E+00  1.526040E+00  1.502394E+00  1.479470E+00  1.457235E+00  1.435660E+00  1.414714E+00  1.394372E+00
 1.374606E+00  1.355394E+00  1.336712E+00  1.318538E+00  1.300852E+00  1.283635E+00  1.266869E+00  1.250535E+00  1.234617E+00  1.219100E+00
 1.203968E+00  1.189208E+00  1.174806E+00  1.160749E+00  1.147025E+00  1.133622E+00  1.120529E+00  1.107735E+00  1.095231E+00  1.083006E+00
 1.071051E+00  1.059358E+00  1.047917E+00  1.036721E+00  1.025761E+00  1.015030E+00  1.004519E+00  9.942195E-01  9.841239E-01  9.742282E-01
 9.596326E+01  6.516169E+01  3.952008E+01  2.791211E+01  2.159153E+01  1.763080E+01  1.490860E+01  1.291814E+01  1.139769E+01  1.019779E+01
 9.226571E+00  8.424293E+00  7.750389E+00  7.176324E+00  6.681440E+00  6.250411E+00  5.871628E+00  5.536135E+00  5.236911E+00  4.968376E+00