# vtk DataFile Version 2.0
PFLOTRAN output
ASCII
DATASET UNSTRUCTURED_GRID
POINTS          462 float
 0.000000E+00  0.000000E+00  0.000000E+00
 1.000000E+01  0.000000E+00  0.000000E+00
 2.000000E+01  0.000000E+00  0.000000E+00
 3.000000E+01  0.000000E+00  0.000000E+00
 4.000000E+01  0.000000E+00  0.000000E+00
 5.000000E+01  0.000000E+00  0.000000E+00
 6.000000E+01  0.000000E+00  0.000000E+00
 7.000000E+01  0.000000E+00  0.000000E+00
 8.000000E+01  0.000000E+00  0.000000E+00
 9.000000E+01  0.000000E+00  0.000000E+00
 1.000000E+02  0.000000E+00  0.000000E+00
 0.000000E+00  1.000000E+00  0.000000E+00
 1.000000E+01  1.000000E+00  0.000000E+00
 2.000000E+01  1.000000E+00  0.000000E+00
 3.000000E+01  1.000000E+00  0.000000E+00
 4.000000E+01  1.000000E+00  0.000000E+00
 5.000000E+01  1.000000E+00  0.000000E+00
 6.000000E+01  1.000000E+00  0.000000E+00
 7.000000E+01  1.000000E+00  0.000000E+00
 8.000000E+01  1.000000E+00  0.000000E+00
 9.000000E+01  1.000000E+00  0.000000E+00
 1.000000E+02  1.000000E+00  0.000000E+00
 0.000000E+00  0.000000E+00  5.000000E+00
 1.000000E+01  0.000000E+00  5.000000E+00
 2.000000E+01  0.000000E+00  5.000000E+00
 3.000000E+01  0.000000E+00  5.000000E+00
 4.000000E+01  0.000000E+00  5.000000E+00
 5.000000E+01  0.000000E+00  5.000000E+00
 6.000000E+01  0.000000E+00  5.000000E+00
 7.000000E+01  0.000000E+00  5.000000E+00
 8.000000E+01  0.000000E+00  5.000000E+00
 9.000000E+01  0.000000E+00  5.000000E+00
 1.000000E+02  0.000000E+00  5.000000E+00
 0.000000E+00  1.000000E+00  5.000000E+00
 1.000000E+01  1.000000E+00  5.000000E+00
 2.000000E+01  1.000000E+00  5.000000E+00
 3.000000E+01  1.000000E+00  5.000000E+00
 4.000000E+01  1.000000E+00  5.000000E+00
 5.000000E+01  1.000000E+00  5.000000E+00
 6.000000E+01  1.000000E+00  5.000000E+00
 7.000000E+01  1.000000E+00  5.000000E+00
 8.000000E+01  1.000000E+00  5.000000E+00
 9.000000E+01  1.000000E+00  5.000000E+00
 1.000000E+02  1.000000E+00  5.000000E+00
 0.000000E+00  0.000000E+00  1.000000E+01
 1.000000E+01  0.000000E+00  1.000000E+01
 2.000000E+01  0.000000E+00  1.000000E+01
 3.000000E+01  0.000000E+00  1.000000E+01
 4.000000E+01  0.000000E+00  1.000000E+01
 5.000000E+01  0.000000E+00  1.000000E+01
 6.000000E+01  0.000000E+00  1.000000E+01
 7.000000E+01  0.000000E+00  1.000000E+01
 8.000000E+01  0.000000E+00  1.000000E+01
 9.000000E+01  0.000000E+00  1.000000E+01
 1.000000E+02  0.000000E+00  1.000000E+01
 0.000000E+00  1.000000E+00  1.000000E+01
 1.000000E+01  1.000000E+00  1.000000E+01
 2.000000E+01  1.000000E+00  1.000000E+01
 3.000000E+01  1.000000E+00  1.000000E+01
 4.000000E+01  1.000000E+00  1.000000E+01
 5.000000E+01  1.000000E+00  1.000000E+01
 6.000000E+01  1.000000E+00  1.000000E+01
 7.000000E+01  1.000000E+00  1.000000E+01
 8.000000E+01  1.000000E+00  1.000000E+01
 9.000000E+01  1.000000E+00  1.000000E+01
 1.000000E+02  1.000000E+00  1.000000E+01
 0.000000E+00  0.000000E+00  1.500000E+01
 1.000000E+01  0.000000E+00  1.500000E+01
 2.000000E+01  0.000000E+00  1.500000E+01
 3.000000E+01  0.000000E+00  1.500000E+01
 4.000000E+01  0.000000E+00  1.500000E+01
 5.000000E+01  0.000000E+00  1.500000E+01
 6.000000E+01  0.000000E+00  1.500000E+01
 7.000000E+01  0.000000E+00  1.500000E+01
 8.000000E+01  0.000000E+00  1.500000E+01
 9.000000E+01  0.000000E+00  1.500000E+01
 1.000000E+02  0.000000E+00  1.500000E+01
 0.000000E+00  1.000000E+00  1.500000E+01
 1.000000E+01  1.000000E+00  1.500000E+01
 2.000000E+01  1.000000E+00  1.500000E+01
 3.000000E+01  1.000000E+00  1.500000E+01
 4.000000E+01  1.000000E+00  1.500000E+01
 5.000000E+01  1.000000E+00  1.500000E+01
 6.000000E+01  1.000000E+00  1.500000E+01
 7.000000E+01  1.000000E+00  1.500000E+01
 8.000000E+01  1.000000E+00  1.500000E+01
 9.000000E+01  1.000000E+00  1.500000E+01
 1.000000E+02  1.000000E+00  1.500000E+01
 0.000000E+00  0.000000E+00  2.000000E+01
 1.000000E+01  0.000000E+00  2.000000E+01
 2.000000E+01  0.000000E+00  2.000000E+01
 3.000000E+01  0.000000E+00  2.000000E+01
 4.000000E+01  0.000000E+00  2.000000E+01
 5.000000E+01  0.000000E+00  2.000000E+01
 6.000000E+01  0.000000E+00  2.000000E+01
 7.000000E+01  0.000000E+00  2.000000E+01
 8.000000E+01  0.000000E+00  2.000000E+01
 9.000000E+01  0.000000E+00  2.000000E+01
 1.000000E+02  0.000000E+00  2.000000E+01
 0.000000E+00  1.000000E+00  2.000000E+01
 1.000000E+01  1.000000E+00  2.000000E+01
 2.000000E+01  1.000000E+00  2.000000E+01
 3.000000E+01  1.000000E+00  2.000000E+01
 4.000000E+01  1.000000E+00  2.000000E+01
 5.000000E+01  1.000000E+00  2.000000E+01
 6.000000E+01  1.000000E+00  2.000000E+01
 7.000000E+01  1.000000E+00  2.000000E+01
 8.000000E+01  1.000000E+00  2.000000E+01
 9.000000E+01  1.000000E+00  2.000000E+01
 1.000000E+02  1.000000E+00  2.000000E+01
 0.000000E+00  0.000000E+00  2.500000E+01
 1.000000E+01  0.000000E+00  2.500000E+01
 2.000000E+01  0.000000E+00  2.500000E+01
 3.000000E+01  0.000000E+00  2.500000E+01
 4.000000E+01  0.000000E+00  2.500000E+01
 5.000000E+01  0.000000E+00  2.500000E+01
 6.000000E+01  0.000000E+00  2.500000E+01
 7.000000E+01  0.000000E+00  2.500000E+01
 8.000000E+01  0.000000E+00  2.500000E+01
 9.000000E+01  0.000000E+00  2.500000E+01
 1.000000E+02  0.000000E+00  2.500000E+01
 0.000000E+00  1.000000E+00  2.500000E+01
 1.000000E+01  1.000000E+00  2.500000E+01
 2.000000E+01  1.000000E+00  2.500000E+01
 3.000000E+01  1.000000E+00  2.500000E+01
 4.000000E+01  1.000000E+00  2.500000E+01
 5.000000E+01  1.000000E+00  2.500000E+01
 6.000000E+01  1.000000E+00  2.500000E+01
 7.000000E+01  1.000000E+00  2.500000E+01
 8.000000E+01  1.000000E+00  2.500000E+01
 9.000000E+01  1.000000E+00  2.500000E+01
 1.000000E+02  1.000000E+00  2.500000E+01
 0.000000E+00  0.000000E+00  3.000000E+01
 1.000000E+01  0.000000E+00  3.000000E+01
 2.000000E+01  0.000000E+00  3.000000E+01
 3.000000E+01  0.000000E+00  3.000000E+01
 4.000000E+01  0.000000E+00  3.000000E+01
 5.000000E+01  0.000000E+00  3.000000E+01
 6.000000E+01  0.000000E+00  3.000000E+01
 7.000000E+01  0.000000E+00  3.000000E+01
 8.000000E+01  0.000000E+00  3.000000E+01
 9.000000E+01  0.000000E+00  3.000000E+01
 1.000000E+02  0.000000E+00  3.000000E+01
 0.000000E+00  1.000000E+00  3.000000E+01
 1.000000E+01  1.000000E+00  3.000000E+01
 2.000000E+01  1.000000E+00  3.000000E+01
 3.000000E+01  1.000000E+00  3.000000E+01
 4.000000E+01  1.000000E+00  3.000000E+01
 5.000000E+01  1.000000E+00  3.000000E+01
 6.000000E+01  1.000000E+00  3.000000E+01
 7.000000E+01  1.000000E+00  3.000000E+01
 8.000000E+01  1.000000E+00  3.000000E+01
 9.000000E+01  1.000000E+00  3.000000E+01
 1.000000E+02  1.000000E+00  3.000000E+01
 0.000000E+00  0.000000E+00  3.500000E+01
 1.000000E+01  0.000000E+00  3.500000E+01
 2.000000E+01  0.000000E+00  3.500000E+01
 3.000000E+01  0.000000E+00  3.500000E+01
 4.000000E+01  0.000000E+00  3.500000E+01
 5.000000E+01  0.000000E+00  3.500000E+01
 6.000000E+01  0.000000E+00  3.500000E+01
 7.000000E+01  0.000000E+00  3.500000E+01
 8.000000E+01  0.000000E+00  3.500000E+01
 9.000000E+01  0.000000E+00  3.500000E+01
 1.000000E+02  0.000000E+00  3.500000E+01
 0.000000E+00  1.000000E+00  3.500000E+01
 1.000000E+01  1.000000E+00  3.500000E+01
 2.000000E+01  1.000000E+00  3.500000E+01
 3.000000E+01  1.000000E+00  3.500000E+01
 4.000000E+01  1.000000E+00  3.500000E+01
 5.000000E+01  1.000000E+00  3.500000E+01
 6.000000E+01  1.000000E+00  3.500000E+01
 7.000000E+01  1.000000E+00  3.500000E+01
 8.000000E+01  1.000000E+00  3.500000E+01
 9.000000E+01  1.000000E+00  3.500000E+01
 1.000000E+02  1.000000E+00  3.500000E+01
 0.000000E+00  0.000000E+00  4.000000E+01
 1.000000E+01  0.000000E+00  4.000000E+01
 2.000000E+01  0.000000E+00  4.000000E+01
 3.000000E+01  0.000000E+00  4.000000E+01
 4.000000E+01  0.000000E+00  4.000000E+01
 5.000000E+01  0.000000E+00  4.000000E+01
 6.000000E+01  0.000000E+00  4.000000E+01
 7.000000E+01  0.000000E+00  4.000000E+01
 8.000000E+01  0.000000E+00  4.000000E+01
 9.000000E+01  0.000000E+00  4.000000E+01
 1.000000E+02  0.000000E+00  4.000000E+01
 0.000000E+00  1.000000E+00  4.000000E+01
 1.000000E+01  1.000000E+00  4.000000E+01
 2.000000E+01  1.000000E+00  4.000000E+01
 3.000000E+01  1.000000E+00  4.000000E+01
 4.000000E+01  1.000000E+00  4.000000E+01
 5.000000E+01  1.000000E+00  4.000000E+01
 6.000000E+01  1.000000E+00  4.000000E+01
 7.000000E+01  1.000000E+00  4.000000E+01
 8.000000E+01  1.000000E+00  4.000000E+01
 9.000000E+01  1.000000E+00  4.000000E+01
 1.000000E+02  1.000000E+00  4.000000E+01
 0.000000E+00  0.000000E+00  4.500000E+01
 1.000000E+01  0.000000E+00  4.500000E+01
 2.000000E+01  0.000000E+00  4.500000E+01
 3.000000E+01  0.000000E+00  4.500000E+01
 4.000000E+01  0.000000E+00  4.500000E+01
 5.000000E+01  0.000000E+00  4.500000E+01
 6.000000E+01  0.000000E+00  4.500000E+01
 7.000000E+01  0.000000E+00  4.500000E+01
 8.000000E+01  0.000000E+00  4.500000E+01
 9.000000E+01  0.000000E+00  4.500000E+01
 1.000000E+02  0.000000E+00  4.500000E+01
 0.000000E+00  1.000000E+00  4.500000E+01
 1.000000E+01  1.000000E+00  4.500000E+01
 2.000000E+01  1.000000E+00  4.500000E+01
 3.000000E+01  1.000000E+00  4.500000E+01
 4.000000E+01  1.000000E+00  4.500000E+01
 5.000000E+01  1.000000E+00  4.500000E+01
 6.000000E+01  1.000000E+00  4.500000E+01
 7.000000E+01  1.000000E+00  4.500000E+01
 8.000000E+01  1.000000E+00  4.500000E+01
 9.000000E+01  1.000000E+00  4.500000E+01
 1.000000E+02  1.000000E+00  4.500000E+01
 0.000000E+00  0.000000E+00  5.000000E+01
 1.000000E+01  0.000000E+00  5.000000E+01
 2.000000E+01  0.000000E+00  5.000000E+01
 3.000000E+01  0.000000E+00  5.000000E+01
 4.000000E+01  0.000000E+00  5.000000E+01
 5.000000E+01  0.000000E+00  5.000000E+01
 6.000000E+01  0.000000E+00  5.000000E+01
 7.000000E+01  0.000000E+00  5.000000E+01
 8.000000E+01  0.000000E+00  5.000000E+01
 9.000000E+01  0.000000E+00  5.000000E+01
 1.000000E+02  0.000000E+00  5.000000E+01
 0.000000E+00  1.000000E+00  5.000000E+01
 1.000000E+01  1.000000E+00  5.000000E+01
 2.000000E+01  1.000000E+00  5.000000E+01
 3.000000E+01  1.000000E+00  5.000000E+01
[...]
CELL_DATA      200
SCALARS Porosity             float 1
LOOKUP_TABLE default
 4.377057E-01  4.377094E-01  4.377099E-01  4.377100E-01  4.377100E-01  4.377100E-01  4.377100E-01  4.377100E-01  4.377100E-01  4.377099E-01
 4.376713E-01  4.377038E-01  4.377092E-01  4.377099E-01  4.377099E-01  4.377099E-01  4.377099E-01  4.377099E-01  4.377099E-01  4.377099E-01
 4.375256E-01  4.376759E-01  4.377052E-01  4.377094E-01  4.377099E-01  4.377099E-01  4.377099E-01  4.377099E-01  4.377099E-01  4.377099E-01
 4.371319E-01  4.375817E-01  4.376895E-01  4.377075E-01  4.377097E-01  4.377099E-01  4.377099E-01  4.377099E-01  4.377099E-01  4.377099E-01
 4.364906E-01  4.373541E-01  4.376450E-01  4.377013E-01  4.377091E-01  4.377099E-01  4.377099E-01  4.377099E-01  4.377099E-01  4.377099E-01
 4.364848E-01  4.369810E-01  4.375514E-01  4.376870E-01  4.377074E-01  4.377097E-01  4.377099E-01  4.377099E-01  4.377099E-01  4.377099E-01
 4.391960E-01  4.367475E-01  4.374212E-01  4.376640E-01  4.377046E-01  4.377094E-01  4.377099E-01  4.377099E-01  4.377099E-01  4.377099E-01
 4.391970E-01  4.366795E-01  4.373552E-01  4.376486E-01  4.377025E-01  4.377092E-01  4.377098E-01  4.377099E-01  4.377099E-01  4.377099E-01
 4.391977E-01  4.366512E-01  4.373171E-01  4.376382E-01  4.377009E-01  4.377090E-01  4.377098E-01  4.377099E-01  4.377099E-01  4.377099E-01
 4.391979E-01  4.366398E-01  4.372993E-01  4.376328E-01  4.377000E-01  4.377090E-01  4.377098E-01  4.377099E-01  4.377099E-01  4.377099E-01
 4.391976E-01  4.366397E-01  4.372993E-01  4.376328E-01  4.377000E-01  4.377090E-01  4.377098E-01  4.377099E-01  4.377099E-01  4.377099E-01
 4.391969E-01  4.366509E-01  4.373171E-01  4.376382E-01  4.377009E-01  4.377091E-01  4.377098E-01  4.377099E-01  4.377099E-01  4.377099E-01
 4.391957E-01  4.366791E-01  4.373553E-01  4.376487E-01  4.377025E-01  4.377092E-01  4.377099E-01  4.377099E-01  4.377099E-01  4.377099E-01
 4.391942E-01  4.367472E-01  4.374213E-01  4.376641E-01  4.377047E-01  4.377095E-01  4.377099E-01  4.377099E-01  4.377099E-01  4.377099E-01
 4.364838E-01  4.369811E-01  4.375516E-01  4.376871E-01  4.377075E-01  4.377097E-01  4.377099E-01  4.377099E-01  4.377099E-01  4.377099E-01
 4.364907E-01  4.373544E-01  4.376452E-01  4.377014E-01  4.377091E-01  4.377099E-01  4.377099E-01  4.377099E-01  4.377099E-01  4.377099E-01
 4.371324E-01  4.375821E-01  4.376897E-01  4.377075E-01  4.377097E-01  4.377099E-01  4.377099E-01  4.377099E-01  4.377099E-01  4.377099E-01
 4.375260E-01  4.376762E-01  4.377053E-01  4.377095E-01  4.377099E-01  4.377099E-01  4.377099E-01  4.377099E-01  4.377099E-01  4.377099E-01
 4.376715E-01  4.377039E-01  4.377092E-01  4.377099E-01  4.377099E-01  4.377099E-01  4.377099E-01  4.377099E-01  4.377099E-01  4.377099E-01
 4.377058E-01  4.377094E-01  4.377099E-01  4.377099E-01  4.377099E-01  4.377099E-01  4.377099E-01  4.377099E-01  4.377100E-01  4.377099E-01


SCALARS Permeability         float 1
LOOKUP_TABLE default
 8.829590E-13  8.829773E-13  8.829800E-13  8.829804E-13  8.829804E-13  8.829803E-13  8.829803E-13  8.829803E-13  8.829803E-13  8.829802E-13
 8.827849E-13  8.829492E-13  8.829764E-13  8.829799E-13  8.829802E-13  8.829802E-13  8.829802E-13  8.829802E-13  8.829803E-13  8.829802E-13
 8.820489E-13  8.828084E-13  8.829560E-13  8.829776E-13  8.829800E-13  8.829802E-13  8.829802E-13  8.829802E-13  8.829802E-13  8.829802E-13
 8.800615E-13  8.823323E-13  8.828770E-13  8.829678E-13  8.829790E-13  8.829801E-13  8.829801E-13  8.829801E-13  8.829802E-13  8.829802E-13
 8.768296E-13  8.811825E-13  8.826518E-13  8.829367E-13  8.829757E-13  8.829798E-13  8.829801E-13  8.829801E-13  8.829802E-13  8.829801E-13
 8.768003E-13  8.793002E-13  8.821789E-13  8.828641E-13  8.829675E-13  8.829790E-13  8.829800E-13  8.829801E-13  8.829801E-13  8.829801E-13
 8.905113E-13  8.781235E-13  8.815213E-13  8.827482E-13  8.829535E-13  8.829777E-13  8.829799E-13  8.829800E-13  8.829801E-13  8.829801E-13
 8.905163E-13  8.777806E-13  8.811884E-13  8.826704E-13  8.829425E-13  8.829766E-13  8.829798E-13  8.829800E-13  8.829801E-13  8.829800E-13
 8.905198E-13  8.776381E-13  8.809957E-13  8.826174E-13  8.829344E-13  8.829757E-13  8.829797E-13  8.829800E-13  8.829800E-13  8.829800E-13
 8.905208E-13  8.775807E-13  8.809058E-13  8.825903E-13  8.829300E-13  8.829752E-13  8.829796E-13  8.829800E-13  8.829800E-13  8.829800E-13
 8.905193E-13  8.775802E-13  8.809058E-13  8.825904E-13  8.829300E-13  8.829753E-13  8.829796E-13  8.829800E-13  8.829800E-13  8.829800E-13
 8.905155E-13  8.776369E-13  8.809958E-13  8.826176E-13  8.829345E-13  8.829758E-13  8.829797E-13  8.829800E-13  8.829800E-13  8.829800E-13
 8.905093E-13  8.777790E-13  8.811887E-13  8.826707E-13  8.829427E-13  8.829767E-13  8.829798E-13  8.829800E-13  8.829801E-13  8.829800E-13
 8.905020E-13  8.781220E-13  8.815218E-13  8.827486E-13  8.829537E-13  8.829778E-13  8.829799E-13  8.829800E-13  8.829801E-13  8.829801E-13
 8.767956E-13  8.793009E-13  8.821799E-13  8.828646E-13  8.829677E-13  8.829791E-13  8.829800E-13  8.829800E-13  8.829801E-13  8.829801E-13
 8.768301E-13  8.811842E-13  8.826529E-13  8.829372E-13  8.829759E-13  8.829798E-13  8.829801E-13  8.829801E-13  8.829801E-13  8.829801E-13
 8.800639E-13  8.823340E-13  8.828779E-13  8.829681E-13  8.829792E-13  8.829801E-13  8.829801E-13  8.829801E-13  8.829802E-13  8.829802E-13
 8.820510E-13  8.828096E-13  8.829566E-13  8.829778E-13  8.829801E-13  8.829801E-13  8.829801E-13  8.829801E-13  8.829802E-13  8.829802E-13
 8.827862E-13  8.829499E-13  8.829767E-13  8.829800E-13  8.829802E-13  8.829801E-13  8.829801E-13  8.829802E-13  8.829803E-13  8.829802E-13
 8.829594E-13  8.829775E-13  8.829800E-13  8.829803E-13  8.829802E-13  8.829802E-13  8.829802E-13  8.829803E-13  8.829803E-13  8.829803E-13


SCALARS Liquid_Pressure      float 1
LOOKUP_TABLE default
 8.009813E+06  7.964884E+06  7.898074E+06  7.825740E+06  7.756091E+06  7.692245E+06  7.634838E+06  7.583488E+06  7.537487E+06  7.496110E+06
 7.987117E+06  7.934505E+06  7.861255E+06  7.784985E+06  7.713196E+06  7.648239E+06  7.590264E+06  7.538621E+06  7.492465E+06  7.450995E+06
 7.990751E+06  7.919779E+06  7.832670E+06  7.748400E+06  7.672395E+06  7.605284E+06  7.546216E+06  7.494014E+06  7.447560E+06  7.405914E+06
 8.030006E+06  7.922284E+06  7.811948E+06  7.715477E+06  7.633348E+06  7.563188E+06  7.502593E+06  7.449615E+06  7.402749E+06  7.360858E+06
 8.123558E+06  7.943709E+06  7.798117E+06  7.685352E+06  7.595543E+06  7.521674E+06  7.459252E+06  7.405351E+06  7.357999E+06  7.315821E+06
 8.307571E+06  7.983948E+06  7.789048E+06  7.656733E+06  7.558304E+06  7.480399E+06  7.416019E+06  7.361138E+06  7.313272E+06  7.270790E+06
 8.650817E+06  8.035587E+06  7.780806E+06  7.627904E+06  7.520837E+06  7.438981E+06  7.372706E+06  7.316885E+06  7.268527E+06  7.225756E+06
 8.823484E+06  8.069248E+06  7.767648E+06  7.596938E+06  7.482325E+06  7.397038E+06  7.329130E+06  7.272502E+06  7.223724E+06  7.180706E+06
 8.897383E+06  8.077208E+06  7.745581E+06  7.562184E+06  7.442044E+06  7.354236E+06  7.285132E+06  7.227914E+06  7.178830E+06  7.135633E+06
 8.905146E+06  8.058426E+06  7.712423E+06  7.522513E+06  7.399468E+06  7.310329E+06  7.240594E+06  7.183066E+06  7.133820E+06  7.090528E+06
 8.859927E+06  8.013250E+06  7.667264E+06  7.477362E+06  7.354322E+06  7.265187E+06  7.195453E+06  7.137927E+06  7.088681E+06  7.045389E+06
 8.761731E+06  7.941682E+06  7.610103E+06  7.426732E+06  7.306607E+06  7.218809E+06  7.149711E+06  7.092497E+06  7.043413E+06  7.000215E+06
 8.597425E+06  7.843382E+06  7.541856E+06  7.371185E+06  7.256597E+06  7.171326E+06  7.103429E+06  7.046807E+06  6.998030E+06  6.955010E+06
 8.334406E+06  7.719398E+06  7.464706E+06  7.311855E+06  7.204820E+06  7.122986E+06  7.056725E+06  7.000911E+06  6.952555E+06  6.909781E+06
 7.900922E+06  7.577459E+06  7.382648E+06  7.250390E+06  7.151999E+06  7.074121E+06  7.009758E+06  6.954887E+06  6.907023E+06  6.864537E+06
 7.626674E+06  7.446935E+06  7.301427E+06  7.188720E+06  7.098953E+06  7.025114E+06  6.962712E+06  6.908822E+06  6.861473E+06  6.819289E+06
 7.442879E+06  7.335234E+06  7.224972E+06  7.128560E+06  7.046476E+06  6.976348E+06  6.915776E+06  6.862809E+06  6.815945E+06  6.774048E+06
 7.313370E+06  7.242455E+06  7.155411E+06  7.071200E+06  6.995241E+06  6.928165E+06  6.869122E+06  6.816932E+06  6.770479E+06  6.728825E+06
 7.219469E+06  7.166904E+06  7.093715E+06  7.017503E+06  6.945763E+06  6.880843E+06  6.822893E+06  6.771262E+06  6.725107E+06  6.683629E+06
 7.151886E+06  7.107000E+06  7.040250E+06  6.967975E+06  6.898378E+06  6.834571E+06  6.777190E+06  6.725852E+06  6.679851E+06  6.638466E+06


SCALARS Temperature          float 1
LOOKUP_TABLE default
 1.500982E+02  1.501060E+02  1.501154E+02  1.501227E+02  1.501236E+02  1.501154E+02  1.500996E+02  1.500806E+02  1.500625E+02  1.500470E+02
 1.501017E+02  1.501115E+02  1.501235E+02  1.501347E+02  1.501414E+02  1.501381E+02  1.501226E+02  1.500987E+02  1.500737E+02  1.500526E+02
 1.501015E+02  1.501144E+02  1.501289E+02  1.501423E+02  1.501522E+02  1.501538E+02  1.501414E+02  1.501163E+02  1.500865E+02  1.500599E+02
 1.500965E+02  1.501149E+02  1.501333E+02  1.501490E+02  1.501612E+02  1.501662E+02  1.501575E+02  1.501331E+02  1.500999E+02  1.500684E+02
 1.500842E+02  1.501132E+02  1.501371E+02  1.501557E+02  1.501698E+02  1.501774E+02  1.501720E+02  1.501489E+02  1.501136E+02  1.500777E+02
 1.500591E+02  1.501096E+02  1.501413E+02  1.501631E+02  1.501788E+02  1.501883E+02  1.501855E+02  1.501640E+02  1.501271E+02  1.500872E+02
 1.500097E+02  1.501064E+02  1.501472E+02  1.501720E+02  1.501891E+02  1.501998E+02  1.501988E+02  1.501784E+02  1.501403E+02  1.500968E+02
 1.500032E+02  1.501139E+02  1.501579E+02  1.501833E+02  1.502005E+02  1.502115E+02  1.502116E+02  1.501919E+02  1.501525E+02  1.501057E+02
 1.500011E+02  1.501191E+02  1.501658E+02  1.501921E+02  1.502096E+02  1.502209E+02  1.502217E+02  1.502025E+02  1.501621E+02  1.501128E+02
 1.500010E+02  1.501228E+02  1.501714E+02  1.501986E+02  1.502164E+02  1.502280E+02  1.502291E+02  1.502100E+02  1.501688E+02  1.501177E+02
 1.500010E+02  1.501228E+02  1.501714E+02  1.501986E+02  1.502164E+02  1.502280E+02  1.502291E+02  1.502101E+02  1.501688E+02  1.501177E+02
 1.500024E+02  1.501224E+02  1.501705E+02  1.501979E+02  1.502160E+02  1.502277E+02  1.502285E+02  1.502087E+02  1.501670E+02  1.501161E+02
 1.500061E+02  1.501208E+02  1.501678E+02  1.501952E+02  1.502136E+02  1.502254E+02  1.502254E+02  1.502044E+02  1.501623E+02  1.501122E+02
 1.500148E+02  1.501179E+02  1.501632E+02  1.501908E+02  1.502095E+02  1.502210E+02  1.502197E+02  1.501971E+02  1.501547E+02  1.501061E+02
 1.500774E+02  1.501321E+02  1.501670E+02  1.501911E+02  1.502083E+02  1.502184E+02  1.502145E+02  1.501892E+02  1.501461E+02  1.500992E+02
 1.501158E+02  1.501477E+02  1.501741E+02  1.501944E+02  1.502095E+02  1.502172E+02  1.502095E+02  1.501806E+02  1.501365E+02  1.500916E+02
 1.501412E+02  1.501620E+02  1.501822E+02  1.501991E+02  1.502120E+02  1.502162E+02  1.502032E+02  1.501699E+02  1.501254E+02  1.500832E+02
 1.501594E+02  1.501742E+02  1.501901E+02  1.502043E+02  1.502142E+02  1.502131E+02  1.501934E+02  1.501560E+02  1.501123E+02  1.500741E+02
 1.501728E+02  1.501842E+02  1.501970E+02  1.502084E+02  1.502134E+02  1.502040E+02  1.501765E+02  1.501369E+02  1.500968E+02  1.500645E+02
 1.501824E+02  1.501909E+02  1.502000E+02  1.502047E+02  1.501987E+02  1.501781E+02  1.501457E+02  1.501100E+02  1.500787E+02  1.500547E+02


SCALARS pH                   float 1
LOOKUP_TABLE default
 6.145669E+00  6.145698E+00  6.145728E+00  6.145754E+00  6.145768E+00  6.145754E+00  6.145689E+00  6.145546E+00  6.145320E+00  6.145036E+00
 6.145647E+00  6.145677E+00  6.145708E+00  6.145739E+00  6.145765E+00  6.145774E+00  6.145747E+00  6.145654E+00  6.145473E+00  6.145204E+00
 6.145609E+00  6.145664E+00  6.145699E+00  6.145731E+00  6.145762E+00  6.145780E+00  6.145770E+00  6.145704E+00  6.145554E+00  6.145305E+00
 6.145286E+00  6.145640E+00  6.145691E+00  6.145727E+00  6.145759E+00  6.145784E+00  6.145784E+00  6.145735E+00  6.145608E+00  6.145378E+00
 6.141701E+00  6.145487E+00  6.145680E+00  6.145725E+00  6.145760E+00  6.145788E+00  6.145795E+00  6.145758E+00  6.145648E+00  6.145433E+00
 6.113406E+00  6.144169E+00  6.145636E+00  6.145725E+00  6.145763E+00  6.145794E+00  6.145806E+00  6.145778E+00  6.145679E+00  6.145475E+00
 5.971420E+00  6.136420E+00  6.145396E+00  6.145726E+00  6.145772E+00  6.145805E+00  6.145821E+00  6.145798E+00  6.145707E+00  6.145510E+00
 5.971402E+00  6.134512E+00  6.145299E+00  6.145739E+00  6.145788E+00  6.145821E+00  6.145838E+00  6.145818E+00  6.145731E+00  6.145538E+00
 5.971401E+00  6.133615E+00  6.145243E+00  6.145751E+00  6.145802E+00  6.145834E+00  6.145852E+00  6.145834E+00  6.145750E+00  6.145559E+00
 5.971402E+00  6.133254E+00  6.145218E+00  6.145759E+00  6.145811E+00  6.145844E+00  6.145862E+00  6.145844E+00  6.145761E+00  6.145570E+00
 5.971399E+00  6.133249E+00  6.145215E+00  6.145756E+00  6.145809E+00  6.145843E+00  6.145861E+00  6.145844E+00  6.145761E+00  6.145570E+00
 5.971397E+00  6.133607E+00  6.145238E+00  6.145749E+00  6.145803E+00  6.145836E+00  6.145855E+00  6.145836E+00  6.145750E+00  6.145557E+00
 5.971399E+00  6.134501E+00  6.145294E+00  6.145739E+00  6.145792E+00  6.145827E+00  6.145844E+00  6.145822E+00  6.145732E+00  6.145535E+00
 5.971420E+00  6.136410E+00  6.145394E+00  6.145730E+00  6.145781E+00  6.145816E+00  6.145831E+00  6.145805E+00  6.145709E+00  6.145506E+00
 6.113415E+00  6.144170E+00  6.145643E+00  6.145737E+00  6.145780E+00  6.145812E+00  6.145823E+00  6.145789E+00  6.145683E+00  6.145471E+00
 6.141715E+00  6.145501E+00  6.145700E+00  6.145749E+00  6.145786E+00  6.145815E+00  6.145819E+00  6.145773E+00  6.145652E+00  6.145427E+00
 6.145309E+00  6.145668E+00  6.145724E+00  6.145763E+00  6.145797E+00  6.145820E+00  6.145813E+00  6.145752E+00  6.145612E+00  6.145370E+00
 6.145645E+00  6.145706E+00  6.145744E+00  6.145780E+00  6.145810E+00  6.145824E+00  6.145802E+00  6.145720E+00  6.145554E+00  6.145295E+00
 6.145696E+00  6.145732E+00  6.145765E+00  6.145798E+00  6.145820E+00  6.145819E+00  6.145774E+00  6.145662E+00  6.145466E+00  6.145189E+00
 6.145729E+00  6.145760E+00  6.145790E+00  6.145812E+00  6.145815E+00  6.145783E+00  6.145697E+00  6.145536E+00  6.145301E+00  6.145017E+00


SCALARS Total_H+             float 1
LOOKUP_TABLE default
-3.046800E-03 -3.045593E-03 -3.044166E-03 -3.042637E-03 -3.041181E-03 -3.039979E-03 -3.039211E-03 -3.039053E-03 -3.039594E-03 -3.040756E-03
-3.048029E-03 -3.046895E-03 -3.045511E-03 -3.043926E-03 -3.042282E-03 -3.040802E-03 -3.039709E-03 -3.039181E-03 -3.039344E-03 -3.040246E-03
-3.048788E-03 -3.047585E-03 -3.046207E-03 -3.044641E-03 -3.042942E-03 -3.041309E-03 -3.040020E-03 -3.039288E-03 -3.039241E-03 -3.039966E-03
-3.048345E-03 -3.048144E-03 -3.046669E-03 -3.045096E-03 -3.043383E-03 -3.041663E-03 -3.040227E-03 -3.039345E-03 -3.039157E-03 -3.039762E-03
-3.029826E-03 -3.048184E-03 -3.047015E-03 -3.045380E-03 -3.043656E-03 -3.041885E-03 -3.040341E-03 -3.039341E-03 -3.039055E-03 -3.039585E-03
-2.872524E-03 -3.041796E-03 -3.047133E-03 -3.045515E-03 -3.043768E-03 -3.041969E-03 -3.040349E-03 -3.039262E-03 -3.038914E-03 -3.039410E-03
-2.184463E-03 -2.998318E-03 -3.046000E-03 -3.045463E-03 -3.043711E-03 -3.041901E-03 -3.040237E-03 -3.039094E-03 -3.038716E-03 -3.039217E-03
-2.184375E-03 -2.987231E-03 -3.045149E-03 -3.045193E-03 -3.043483E-03 -3.041695E-03 -3.040018E-03 -3.038849E-03 -3.038470E-03 -3.039005E-03
-2.184297E-03 -2.981906E-03 -3.044548E-03 -3.044949E-03 -3.043264E-03 -3.041493E-03 -3.039811E-03 -3.038627E-03 -3.038255E-03 -3.038827E-03
-2.184272E-03 -2.979712E-03 -3.044210E-03 -3.044763E-03 -3.043084E-03 -3.041318E-03 -3.039633E-03 -3.038447E-03 -3.038092E-03 -3.038702E-03
-2.184314E-03 -2.979747E-03 -3.044235E-03 -3.044780E-03 -3.043095E-03 -3.041326E-03 -3.039637E-03 -3.038450E-03 -3.038094E-03 -3.038703E-03
-2.184408E-03 -2.981911E-03 -3.044470E-03 -3.044817E-03 -3.043100E-03 -3.041310E-03 -3.039624E-03 -3.038459E-03 -3.038130E-03 -3.038757E-03
-2.184547E-03 -2.987187E-03 -3.044946E-03 -3.044896E-03 -3.043128E-03 -3.041310E-03 -3.039633E-03 -3.038508E-03 -3.038219E-03 -3.038866E-03
-2.184678E-03 -2.998175E-03 -3.045632E-03 -3.044968E-03 -3.043142E-03 -3.041297E-03 -3.039642E-03 -3.038578E-03 -3.038345E-03 -3.039015E-03
-2.872344E-03 -3.041290E-03 -3.046454E-03 -3.044729E-03 -3.042918E-03 -3.041092E-03 -3.039509E-03 -3.038555E-03 -3.038420E-03 -3.039149E-03
-3.029117E-03 -3.047264E-03 -3.045965E-03 -3.044247E-03 -3.042475E-03 -3.040700E-03 -3.039239E-03 -3.038448E-03 -3.038457E-03 -3.039283E-03
-3.047145E-03 -3.046797E-03 -3.045224E-03 -3.043590E-03 -3.041848E-03 -3.040161E-03 -3.038882E-03 -3.038308E-03 -3.038502E-03 -3.039450E-03
-3.047123E-03 -3.045808E-03 -3.044360E-03 -3.042753E-03 -3.041055E-03 -3.039522E-03 -3.038502E-03 -3.038196E-03 -3.038603E-03 -3.039690E-03
-3.045916E-03 -3.044700E-03 -3.043270E-03 -3.041675E-03 -3.040099E-03 -3.038847E-03 -3.038179E-03 -3.038184E-03 -3.038826E-03 -3.040058E-03
-3.044279E-03 -3.043032E-03 -3.041616E-03 -3.040186E-03 -3.038981E-03 -3.038221E-03 -3.038018E-03 -3.038400E-03 -3.039330E-03 -3.040705E-03


SCALARS Total_SiO2(aq)       float 1
LOOKUP_TABLE default
 1.040375E-02  1.040164E-02  1.040203E-02  1.040261E-02  1.040270E-02  1.040203E-02  1.040069E-02  1.039906E-02  1.039749E-02  1.039616E-02
 1.043006E-02  1.040635E-02  1.040327E-02  1.040369E-02  1.040422E-02  1.040397E-02  1.040268E-02  1.040064E-02  1.039847E-02  1.039666E-02
 1.053961E-02  1.042765E-02  1.040679E-02  1.040468E-02  1.040517E-02  1.040530E-02  1.040429E-02  1.040216E-02  1.039959E-02  1.039731E-02
 1.084074E-02  1.049860E-02  1.041898E-02  1.040673E-02  1.040608E-02  1.040637E-02  1.040566E-02  1.040360E-02  1.040076E-02  1.039806E-02
 1.142374E-02  1.067199E-02  1.045287E-02  1.041195E-02  1.040730E-02  1.040736E-02  1.040689E-02  1.040495E-02  1.040194E-02  1.039887E-02
 1.224301E-02  1.098837E-02  1.052421E-02  1.042340E-02  1.040931E-02  1.040841E-02  1.040806E-02  1.040625E-02  1.040310E-02  1.039971E-02
 1.307988E-02  1.140141E-02  1.062894E-02  1.044151E-02  1.041228E-02  1.040958E-02  1.040921E-02  1.040749E-02  1.040424E-02  1.040054E-02
 1.307874E-02  1.151036E-02  1.068226E-02  1.045408E-02  1.041488E-02  1.041075E-02  1.041032E-02  1.040865E-02  1.040530E-02  1.040132E-02
 1.307807E-02  1.155900E-02  1.071346E-02  1.046273E-02  1.041687E-02  1.041168E-02  1.041119E-02  1.040956E-02  1.040612E-02  1.040194E-02
 1.307791E-02  1.157875E-02  1.072818E-02  1.046733E-02  1.041811E-02  1.041236E-02  1.041183E-02  1.041020E-02  1.040670E-02  1.040236E-02
 1.307816E-02  1.157882E-02  1.072817E-02  1.046732E-02  1.041810E-02  1.041235E-02  1.041183E-02  1.041021E-02  1.040670E-02  1.040237E-02
 1.307886E-02  1.155942E-02  1.071384E-02  1.046319E-02  1.041740E-02  1.041225E-02  1.041177E-02  1.041009E-02  1.040655E-02  1.040223E-02
 1.308006E-02  1.151114E-02  1.068306E-02  1.045504E-02  1.041598E-02  1.041192E-02  1.041149E-02  1.040972E-02  1.040614E-02  1.040189E-02
 1.308167E-02  1.140255E-02  1.063020E-02  1.044303E-02  1.041399E-02  1.041138E-02  1.041100E-02  1.040910E-02  1.040549E-02  1.040135E-02
 1.224488E-02  1.099012E-02  1.052624E-02  1.042570E-02  1.041178E-02  1.041097E-02  1.041055E-02  1.040842E-02  1.040475E-02  1.040075E-02
 1.142616E-02  1.067462E-02  1.045583E-02  1.041516E-02  1.041066E-02  1.041077E-02  1.041012E-02  1.040769E-02  1.040392E-02  1.040009E-02
 1.084412E-02  1.050230E-02  1.042299E-02  1.041094E-02  1.041040E-02  1.041065E-02  1.040959E-02  1.040678E-02  1.040297E-02  1.039936E-02
 1.054418E-02  1.043252E-02  1.041190E-02  1.040993E-02  1.041047E-02  1.041040E-02  1.040876E-02  1.040559E-02  1.040184E-02  1.039856E-02
 1.043590E-02  1.041241E-02  1.040949E-02  1.040998E-02  1.041040E-02  1.040965E-02  1.040734E-02  1.040396E-02  1.040049E-02  1.039771E-02