# vtk DataFile Version 2.0
PFLOTRAN output
ASCII
DATASET UNSTRUCTURED_GRID
POINTS          462 float
 0.000000E+00  0.000000E+00  0.000000E+00
 1.000000E+01  0.000000E+00  0.000000E+00
 2.000000E+01  0.000000E+00  0.000000E+00
 3.000000E+01  0.000000E+00  0.000000E+00
 4.000000E+01  0.000000E+00  0.000000E+00
 5.000000E+01  0.000000E+00  0.000000E+00
 6.000000E+01  0.000000E+00  0.000000E+00
 7.000000E+01  0.000000E+00  0.000000E+00
 8.000000E+01  0.000000E+00  0.000000E+00
 9.000000E+01  0.000000E+00  0.000000E+00
 1.000000E+02  0.000000E+00  0.000000E+00
 0.000000E+00  1.000000E+00  0.000000E+00
 1.000000E+01  1.000000E+00  0.000000E+00
 2.000000E+01  1.000000E+00  0.000000E+00
 3.000000E+01  1.000000E+00  0.000000E+00
 4.000000E+01  1.000000E+00  0.000000E+00
 5.000000E+01  1.000000E+00  0.000000E+00
 6.000000E+01  1.000000E+00  0.000000E+00
 7.000000E+01  1.000000E+00  0.000000E+00
 8.000000E+01  1.000000E+00  0.000000E+00
 9.000000E+01  1.000000E+00  0.000000E+00
 1.000000E+02  1.000000E+00  0.000000E+00
 0.000000E+00  0.000000E+00  5.000000E+00
 1.000000E+01  0.000000E+00  5.000000E+00
 2.000000E+01  0.000000E+00  5.000000E+00
 3.000000E+01  0.000000E+00  5.000000E+00
 4.000000E+01  0.000000E+00  5.000000E+00
 5.000000E+01  0.000000E+00  5.000000E+00
 6.000000E+01  0.000000E+00  5.000000E+00
 7.000000E+01  0.000000E+00  5.000000E+00
 8.000000E+01  0.000000E+00  5.000000E+00
 9.000000E+01  0.000000E+00  5.000000E+00
 1.000000E+02  0.000000E+00  5.000000E+00
 0.000000E+00  1.000000E+00  5.000000E+00
 1.000000E+01  1.000000E+00  5.000000E+00
 2.000000E+01  1.000000E+00  5.000000E+00
 3.000000E+01  1.000000E+00  5.000000E+00
 4.000000E+01  1.000000E+00  5.000000E+00
 5.000000E+01  1.000000E+00  5.000000E+00
 6.000000E+01  1.000000E+00  5.000000E+00
 7.000000E+01  1.000000E+00  5.000000E+00
 8.000000E+01  1.000000E+00  5.000000E+00
 9.000000E+01  1.000000E+00  5.000000E+00
 1.000000E+02  1.000000E+00  5.000000E+00
 0.000000E+00  0.000000E+00  1.000000E+01
 1.000000E+01  0.000000E+00  1.000000E+01
 2.000000E+01  0.000000E+00  1.000000E+01
 3.000000E+01  0.000000E+00  1.000000E+01
 4.000000E+01  0.000000E+00  1.000000E+01
 5.000000E+01  0.000000E+00  1.000000E+01
 6.000000E+01  0.000000E+00  1.000000E+01
 7.000000E+01  0.000000E+00  1.000000E+01
 8.000000E+01  0.000000E+00  1.000000E+01
 9.000000E+01  0.000000E+00  1.000000E+01
 1.000000E+02  0.000000E+00  1.000000E+01
 0.000000E+00  1.000000E+00  1.000000E+01
 1.000000E+01  1.000000E+00  1.000000E+01
 2.000000E+01  1.000000E+00  1.000000E+01
 3.000000E+01  1.000000E+00  1.000000E+01
 4.000000E+01  1.000000E+00  1.000000E+01
 5.000000E+01  1.000000E+00  1.000000E+01
 6.000000E+01  1.000000E+00  1.000000E+01
 7.000000E+01  1.000000E+00  1.000000E+01
 8.000000E+01  1.000000E+00  1.000000E+01
 9.000000E+01  1.000000E+00  1.000000E+01
 1.000000E+02  1.000000E+00  1.000000E+01
 0.000000E+00  0.000000E+00  1.500000E+01
 1.000000E+01  0.000000E+00  1.500000E+01
 2.000000E+01  0.000000E+00  1.500000E+01
 3.000000E+01  0.000000E+00  1.500000E+01
 4.000000E+01  0.000000E+00  1.500000E+01
 5.000000E+01  0.000000E+00  1.500000E+01
 6.000000E+01  0.000000E+00  1.500000E+01
 7.000000E+01  0.000000E+00  1.500000E+01
 8.000000E+01  0.000000E+00  1.500000E+01
 9.000000E+01  0.000000E+00  1.500000E+01
 1.000000E+02  0.000000E+00  1.500000E+01
 0.000000E+00  1.000000E+00  1.500000E+01
 1.000000E+01  1.000000E+00  1.500000E+01
 2.000000E+01  1.000000E+00  1.500000E+01
 3.000000E+01  1.000000E+00  1.500000E+01
 4.000000E+01  1.000000E+00  1.500000E+01
 5.000000E+01  1.000000E+00  1.500000E+01
 6.000000E+01  1.000000E+00  1.500000E+01
 7.000000E+01  1.000000E+00  1.500000E+01
 8.000000E+01  1.000000E+00  1.500000E+01
 9.000000E+01  1.000000E+00  1.500000E+01
 1.000000E+02  1.000000E+00  1.500000E+01
 0.000000E+00  0.000000E+00  2.000000E+01
 1.000000E+01  0.000000E+00  2.000000E+01
 2.000000E+01  0.000000E+00  2.000000E+01
 3.000000E+01  0.000000E+00  2.000000E+01
 4.000000E+01  0.000000E+00  2.000000E+01
 5.000000E+01  0.000000E+00  2.000000E+01
 6.000000E+01  0.000000E+00  2.000000E+01
 7.000000E+01  0.000000E+00  2.000000E+01
 8.000000E+01  0.000000E+00  2.000000E+01
 9.000000E+01  0.000000E+00  2.000000E+01
 1.000000E+02  0.000000E+00  2.000000E+01
 0.000000E+00  1.000000E+00  2.000000E+01
 1.000000E+01  1.000000E+00  2.000000E+01
 2.000000E+01  1.000000E+00  2.000000E+01
 3.000000E+01  1.000000E+00  2.000000E+01
 4.000000E+01  1.000000E+00  2.000000E+01
 5.000000E+01  1.000000E+00  2.000000E+01
 6.000000E+01  1.000000E+00  2.000000E+01
 7.000000E+01  1.000000E+00  2.000000E+01
 8.000000E+01  1.000000E+00  2.000000E+01
 9.000000E+01  1.000000E+00  2.000000E+01
 1.000000E+02  1.000000E+00  2.000000E+01
 0.000000E+00  0.000000E+00  2.500000E+01
 1.000000E+01  0.000000E+00  2.500000E+01
 2.000000E+01  0.000000E+00  2.500000E+01
 3.000000E+01  0.000000E+00  2.500000E+01
 4.000000E+01  0.000000E+00  2.500000E+01
 5.000000E+01  0.000000E+00  2.500000E+01
 6.000000E+01  0.000000E+00  2.500000E+01
 7.000000E+01  0.000000E+00  2.500000E+01
 8.000000E+01  0.000000E+00  2.500000E+01
 9.000000E+01  0.000000E+00  2.500000E+01
 1.000000E+02  0.000000E+00  2.500000E+01
 0.000000E+00  1.000000E+00  2.500000E+01
 1.000000E+01  1.000000E+00  2.500000E+01
 2.000000E+01  1.000000E+00  2.500000E+01
 3.000000E+01  1.000000E+00  2.500000E+01
 4.000000E+01  1.000000E+00  2.500000E+01
 5.000000E+01  1.000000E+00  2.500000E+01
 6.000000E+01  1.000000E+00  2.500000E+01
 7.000000E+01  1.000000E+00  2.500000E+01
 8.000000E+01  1.000000E+00  2.500000E+01
 9.000000E+01  1.000000E+00  2.500000E+01
 1.000000E+02  1.000000E+00  2.500000E+01
 0.000000E+00  0.000000E+00  3.000000E+01
 1.000000E+01  0.000000E+00  3.000000E+01
 2.000000E+01  0.000000E+00  3.000000E+01
 3.000000E+01  0.000000E+00  3.000000E+01
 4.000000E+01  0.000000E+00  3.000000E+01
 5.000000E+01  0.000000E+00  3.000000E+01
 6.000000E+01  0.000000E+00  3.000000E+01
 7.000000E+01  0.000000E+00  3.000000E+01
 8.000000E+01  0.000000E+00  3.000000E+01
 9.000000E+01  0.000000E+00  3.000000E+01
 1.000000E+02  0.000000E+00  3.000000E+01
 0.000000E+00  1.000000E+00  3.000000E+01
 1.000000E+01  1.000000E+00  3.000000E+01
 2.000000E+01  1.000000E+00  3.000000E+01
 3.000000E+01  1.000000E+00  3.000000E+01
 4.000000E+01  1.000000E+00  3.000000E+01
 5.000000E+01  1.000000E+00  3.000000E+01
 6.000000E+01  1.000000E+00  3.000000E+01
 7.000000E+01  1.000000E+00  3.000000E+01
 8.000000E+01  1.000000E+00  3.000000E+01
 9.000000E+01  1.000000E+00  3.000000E+01
 1.000000E+02  1.000000E+00  3.000000E+01
 0.000000E+00  0.000000E+00  3.500000E+01
 1.000000E+01  0.000000E+00  3.500000E+01
 2.000000E+01  0.000000E+00  3.500000E+01
 3.000000E+01  0.000000E+00  3.500000E+01
 4.000000E+01  0.000000E+00  3.500000E+01
 5.000000E+01  0.000000E+00  3.500000E+01
 6.000000E+01  0.000000E+00  3.500000E+01
 7.000000E+01  0.000000E+00  3.500000E+01
 8.000000E+01  0.000000E+00  3.500000E+01
 9.000000E+01  0.000000E+00  3.500000E+01
 1.000000E+02  0.000000E+00  3.500000E+01
 0.000000E+00  1.000000E+00  3.500000E+01
 1.000000E+01  1.000000E+00  3.500000E+01
 2.000000E+01  1.000000E+00  3.500000E+01
 3.000000E+01  1.000000E+00  3.500000E+01
 4.000000E+01  1.000000E+00  3.500000E+01
 5.000000E+01  1.000000E+00  3.500000E+01
 6.000000E+01  1.000000E+00  3.500000E+01
 7.000000E+01  1.000000E+00  3.500000E+01
 8.000000E+01  1.000000E+00  3.500000E+01
 9.000000E+01  1.000000E+00  3.500000E+01
 1.000000E+02  1.000000E+00  3.500000E+01
 0.000000E+00  0.000000E+00  4.000000E+01
 1.000000E+01  0.000000E+00  4.000000E+01
 2.000000E+01  0.000000E+00  4.000000E+01
 3.000000E+01  0.000000E+00  4.000000E+01
 4.000000E+01  0.000000E+00  4.000000E+01
 5.000000E+01  0.000000E+00  4.000000E+01
 6.000000E+01  0.000000E+00  4.000000E+01
 7.000000E+01  0.000000E+00  4.000000E+01
 8.000000E+01  0.000000E+00  4.000000E+01
 9.000000E+01  0.000000E+00  4.000000E+01
 1.000000E+02  0.000000E+00  4.000000E+01
 0.000000E+00  1.000000E+00  4.000000E+01
 1.000000E+01  1.000000E+00  4.000000E+01
 2.000000E+01  1.000000E+00  4.000000E+01
 3.000000E+01  1.000000E+00  4.000000E+01
 4.000000E+01  1.000000E+00  4.000000E+01
 5.000000E+01  1.000000E+00  4.000000E+01
 6.000000E+01  1.000000E+00  4.000000E+01
 7.000000E+01  1.000000E+00  4.000000E+01
 8.000000E+01  1.000000E+00  4.000000E+01
 9.000000E+01  1.000000E+00  4.000000E+01
 1.000000E+02  1.000000E+00  4.000000E+01
 0.000000E+00  0.000000E+00  4.500000E+01
 1.000000E+01  0.000000E+00  4.500000E+01
 2.000000E+01  0.000000E+00  4.500000E+01
 3.000000E+01  0.000000E+00  4.500000E+01
 4.000000E+01  0.000000E+00  4.500000E+01
 5.000000E+01  0.000000E+00  4.500000E+01
 6.000000E+01  0.000000E+00  4.500000E+01
 7.000000E+01  0.000000E+00  4.500000E+01
 8.000000E+01  0.000000E+00  4.500000E+01
 9.000000E+01  0.000000E+00  4.500000E+01
 1.000000E+02  0.000000E+00  4.500000E+01
 0.000000E+00  1.000000E+00  4.500000E+01
 1.000000E+01  1.000000E+00  4.500000E+01
 2.000000E+01  1.000000E+00  4.500000E+01
 3.000000E+01  1.000000E+00  4.500000E+01
 4.000000E+01  1.000000E+00  4.500000E+01
 5.000000E+01  1.000000E+00  4.500000E+01
 6.000000E+01  1.000000E+00  4.500000E+01
 7.000000E+01  1.000000E+00  4.500000E+01
 8.000000E+01  1.000000E+00  4.500000E+01
 9.000000E+01  1.000000E+00  4.500000E+01
 1.000000E+02  1.000000E+00  4.500000E+01
 0.000000E+00  0.000000E+00  5.000000E+01
 1.000000E+01  0.000000E+00  5.000000E+01
 2.000000E+01  0.000000E+00  5.000000E+01
 3.000000E+01  0.000000E+00  5.000000E+01
 4.000000E+01  0.000000E+00  5.000000E+01
 5.000000E+01  0.000000E+00  5.000000E+01
 6.000000E+01  0.000000E+00  5.000000E+01
 7.000000E+01  0.000000E+00  5.000000E+01
 8.000000E+01  0.000000E+00  5.000000E+01
 9.000000E+01  0.000000E+00  5.000000E+01
 1.000000E+02  0.000000E+00  5.000000E+01
 0.000000E+00  1.000000E+00  5.000000E+01
 1.000000E+01  1.000000E+00  5.000000E+01
 2.000000E+01  1.000000E+00  5.000000E+01
 3.000000E+01  1.000000E+00  5.000000E+01
[...]
CELL_DATA      200
SCALARS Porosity             float 1
LOOKUP_TABLE default
 4.377048E-01  4.377092E-01  4.377099E-01  4.377100E-01  4.377100E-01  4.377100E-01  4.377099E-01  4.377099E-01  4.377099E-01  4.377099E-01
 4.376629E-01  4.377024E-01  4.377090E-01  4.377099E-01  4.377099E-01  4.377099E-01  4.377099E-01  4.377099E-01  4.377099E-01  4.377099E-01
 4.374857E-01  4.376685E-01  4.377041E-01  4.377093E-01  4.377099E-01  4.377099E-01  4.377099E-01  4.377099E-01  4.377099E-01  4.377099E-01
 4.370078E-01  4.375540E-01  4.376851E-01  4.377069E-01  4.377096E-01  4.377099E-01  4.377099E-01  4.377099E-01  4.377099E-01  4.377099E-01
 4.362340E-01  4.372777E-01  4.376309E-01  4.376994E-01  4.377089E-01  4.377098E-01  4.377099E-01  4.377099E-01  4.377099E-01  4.377099E-01
 4.362444E-01  4.368266E-01  4.375173E-01  4.376820E-01  4.377069E-01  4.377097E-01  4.377099E-01  4.377099E-01  4.377099E-01  4.377099E-01
 4.394667E-01  4.365493E-01  4.373596E-01  4.376541E-01  4.377035E-01  4.377093E-01  4.377099E-01  4.377099E-01  4.377099E-01  4.377099E-01
 4.394677E-01  4.364676E-01  4.372794E-01  4.376354E-01  4.377008E-01  4.377091E-01  4.377098E-01  4.377099E-01  4.377099E-01  4.377099E-01
 4.394684E-01  4.364338E-01  4.372330E-01  4.376226E-01  4.376989E-01  4.377089E-01  4.377098E-01  4.377099E-01  4.377099E-01  4.377099E-01
 4.394686E-01  4.364201E-01  4.372114E-01  4.376161E-01  4.376978E-01  4.377087E-01  4.377098E-01  4.377099E-01  4.377099E-01  4.377099E-01
 4.394682E-01  4.364200E-01  4.372114E-01  4.376161E-01  4.376978E-01  4.377087E-01  4.377098E-01  4.377099E-01  4.377099E-01  4.377099E-01
 4.394674E-01  4.364335E-01  4.372330E-01  4.376226E-01  4.376989E-01  4.377089E-01  4.377098E-01  4.377099E-01  4.377099E-01  4.377099E-01
 4.394661E-01  4.364672E-01  4.372795E-01  4.376354E-01  4.377009E-01  4.377091E-01  4.377098E-01  4.377099E-01  4.377099E-01  4.377099E-01
 4.394645E-01  4.365489E-01  4.373597E-01  4.376542E-01  4.377035E-01  4.377094E-01  4.377099E-01  4.377099E-01  4.377099E-01  4.377099E-01
 4.362433E-01  4.368268E-01  4.375175E-01  4.376821E-01  4.377069E-01  4.377097E-01  4.377099E-01  4.377099E-01  4.377099E-01  4.377099E-01
 4.362341E-01  4.372781E-01  4.376311E-01  4.376996E-01  4.377089E-01  4.377098E-01  4.377099E-01  4.377099E-01  4.377099E-01  4.377099E-01
 4.370084E-01  4.375544E-01  4.376853E-01  4.377070E-01  4.377097E-01  4.377099E-01  4.377099E-01  4.377099E-01  4.377099E-01  4.377099E-01
 4.374862E-01  4.376688E-01  4.377042E-01  4.377094E-01  4.377099E-01  4.377099E-01  4.377099E-01  4.377099E-01  4.377099E-01  4.377099E-01
 4.376631E-01  4.377026E-01  4.377091E-01  4.377099E-01  4.377099E-01  4.377099E-01  4.377099E-01  4.377099E-01  4.377099E-01  4.377099E-01
 4.377049E-01  4.377093E-01  4.377099E-01  4.377099E-01  4.377099E-01  4.377099E-01  4.377099E-01  4.377099E-01  4.377099E-01  4.377099E-01


SCALARS Permeability         float 1
LOOKUP_TABLE default
 1.000000E-12  1.000000E-12  1.000000E-12  1.000000E-12  1.000000E-12  1.000000E-12  1.000000E-12  1.000000E-12  1.000000E-12  1.000000E-12
 1.000000E-12  1.000000E-12  1.000000E-12  1.000000E-12  1.000000E-12  1.000000E-12  1.000000E-12  1.000000E-12  1.000000E-12  1.000000E-12
 1.000000E-12  1.000000E-12  1.000000E-12  1.000000E-12  1.000000E-12  1.000000E-12  1.000000E-12  1.000000E-12  1.000000E-12  1.000000E-12
 1.000000E-12  1.000000E-12  1.000000E-12  1.000000E-12  1.000000E-12  1.000000E-12  1.000000E-12  1.000000E-12  1.000000E-12  1.000000E-12
 1.000000E-12  1.000000E-12  1.000000E-12  1.000000E-12  1.000000E-12  1.000000E-12  1.000000E-12  1.000000E-12  1.000000E-12  1.000000E-12
 1.000000E-12  1.000000E-12  1.000000E-12  1.000000E-12  1.000000E-12  1.000000E-12  1.000000E-12  1.000000E-12  1.000000E-12  1.000000E-12
 1.000000E-12  1.000000E-12  1.000000E-12  1.000000E-12  1.000000E-12  1.000000E-12  1.000000E-12  1.000000E-12  1.000000E-12  1.000000E-12
 1.000000E-12  1.000000E-12  1.000000E-12  1.000000E-12  1.000000E-12  1.000000E-12  1.000000E-12  1.000000E-12  1.000000E-12  1.000000E-12
 1.000000E-12  1.000000E-12  1.000000E-12  1.000000E-12  1.000000E-12  1.000000E-12  1.000000E-12  1.000000E-12  1.000000E-12  1.000000E-12
 1.000000E-12  1.000000E-12  1.000000E-12  1.000000E-12  1.000000E-12  1.000000E-12  1.000000E-12  1.000000E-12  1.000000E-12  1.000000E-12
 1.000000E-12  1.000000E-12  1.000000E-12  1.000000E-12  1.000000E-12  1.000000E-12  1.000000E-12  1.000000E-12  1.000000E-12  1.000000E-12
 1.000000E-12  1.000000E-12  1.000000E-12  1.000000E-12  1.000000E-12  1.000000E-12  1.000000E-12  1.000000E-12  1.000000E-12  1.000000E-12
 1.000000E-12  1.000000E-12  1.000000E-12  1.000000E-12  1.000000E-12  1.000000E-12  1.000000E-12  1.000000E-12  1.000000E-12  1.000000E-12
 1.000000E-12  1.000000E-12  1.000000E-12  1.000000E-12  1.000000E-12  1.000000E-12  1.000000E-12  1.000000E-12  1.000000E-12  1.000000E-12
 1.000000E-12  1.000000E-12  1.000000E-12  1.000000E-12  1.000000E-12  1.000000E-12  1.000000E-12  1.000000E-12  1.000000E-12  1.000000E-12
 1.000000E-12  1.000000E-12  1.000000E-12  1.000000E-12  1.000000E-12  1.000000E-12  1.000000E-12  1.000000E-12  1.000000E-12  1.000000E-12
 1.000000E-12  1.000000E-12  1.000000E-12  1.000000E-12  1.000000E-12  1.000000E-12  1.000000E-12  1.000000E-12  1.000000E-12  1.000000E-12
 1.000000E-12  1.000000E-12  1.000000E-12  1.000000E-12  1.000000E-12  1.000000E-12  1.000000E-12  1.000000E-12  1.000000E-12  1.000000E-12
 1.000000E-12  1.000000E-12  1.000000E-12  1.000000E-12  1.000000E-12  1.000000E-12  1.000000E-12  1.000000E-12  1.000000E-12  1.000000E-12
 1.000000E-12  1.000000E-12  1.000000E-12  1.000000E-12  1.000000E-12  1.000000E-12  1.000000E-12  1.000000E-12  1.000000E-12  1.000000E-12


SCALARS Liquid_Pressure      float 1
LOOKUP_TABLE default
 7.947448E+06  7.907777E+06  7.848796E+06  7.784938E+06  7.723446E+06  7.667076E+06  7.616390E+06  7.571054E+06  7.530444E+06  7.493918E+06
 7.922121E+06  7.875665E+06  7.811001E+06  7.743669E+06  7.680288E+06  7.622937E+06  7.571749E+06  7.526155E+06  7.485407E+06  7.448800E+06
 7.920023E+06  7.857366E+06  7.780475E+06  7.706083E+06  7.638979E+06  7.579726E+06  7.527573E+06  7.481485E+06  7.440474E+06  7.403710E+06
 7.949255E+06  7.854254E+06  7.756889E+06  7.671730E+06  7.599221E+06  7.537274E+06  7.483773E+06  7.436998E+06  7.395623E+06  7.358644E+06
 8.025998E+06  7.867767E+06  7.739381E+06  7.639849E+06  7.560559E+06  7.495337E+06  7.440221E+06  7.392631E+06  7.350827E+06  7.313593E+06
 8.181897E+06  7.897709E+06  7.726060E+06  7.609299E+06  7.522397E+06  7.453611E+06  7.396765E+06  7.348309E+06  7.306050E+06  7.268549E+06
 8.480041E+06  7.937527E+06  7.713445E+06  7.578562E+06  7.484036E+06  7.411758E+06  7.353239E+06  7.303952E+06  7.261258E+06  7.223501E+06
 8.628301E+06  7.961700E+06  7.696495E+06  7.545936E+06  7.444750E+06  7.369442E+06  7.309480E+06  7.259480E+06  7.216415E+06  7.178441E+06
 8.688606E+06  7.963301E+06  7.671694E+06  7.509966E+06  7.403902E+06  7.326368E+06  7.265349E+06  7.214828E+06  7.171492E+06  7.133359E+06
 8.690259E+06  7.941368E+06  7.637117E+06  7.469654E+06  7.361027E+06  7.282317E+06  7.220740E+06  7.169945E+06  7.126467E+06  7.088250E+06
 8.645048E+06  7.896196E+06  7.591960E+06  7.424504E+06  7.315881E+06  7.237175E+06  7.175600E+06  7.124806E+06  7.081328E+06  7.043111E+06
 8.552979E+06  7.827787E+06  7.536223E+06  7.374517E+06  7.268467E+06  7.190941E+06  7.129928E+06  7.079410E+06  7.036075E+06  6.997941E+06
 8.402281E+06  7.735854E+06  7.470714E+06  7.320189E+06  7.219025E+06  7.143732E+06  7.083779E+06  7.033784E+06  6.990721E+06  6.952744E+06
 8.163679E+06  7.621362E+06  7.397359E+06  7.262520E+06  7.168023E+06  7.095764E+06  7.037257E+06  6.987977E+06  6.945286E+06  6.907527E+06
 7.775295E+06  7.491247E+06  7.319676E+06  7.202966E+06  7.116098E+06  7.047334E+06  6.990504E+06  6.942057E+06  6.899800E+06  6.862296E+06
 7.529155E+06  7.371021E+06  7.242708E+06  7.143228E+06  7.063975E+06  6.998779E+06  6.943681E+06  6.896101E+06  6.854299E+06  6.817062E+06
 7.362164E+06  7.267231E+06  7.169931E+06  7.084824E+06  7.012354E+06  6.950436E+06  6.896955E+06  6.850191E+06  6.808819E+06  6.771834E+06
 7.242675E+06  7.180068E+06  7.103234E+06  7.028894E+06  6.961832E+06  6.902609E+06  6.850479E+06  6.804402E+06  6.763393E+06  6.726622E+06
 7.154505E+06  7.108090E+06  7.043479E+06  6.976198E+06  6.912861E+06  6.855543E+06  6.804379E+06  6.758797E+06  6.718051E+06  6.681434E+06
 7.089552E+06  7.049919E+06  6.990991E+06  6.927185E+06  6.865740E+06  6.809405E+06  6.758745E+06  6.713421E+06  6.672812E+06  6.636276E+06


SCALARS Temperature          float 1
LOOKUP_TABLE default
 1.500811E+02  1.500881E+02  1.500972E+02  1.501058E+02  1.501114E+02  1.501110E+02  1.501031E+02  1.500889E+02  1.500720E+02  1.500556E+02
 1.500849E+02  1.500935E+02  1.501040E+02  1.501145E+02  1.501230E+02  1.501266E+02  1.501215E+02  1.501066E+02  1.500856E+02  1.500640E+02
 1.500855E+02  1.500967E+02  1.501095E+02  1.501214E+02  1.501314E+02  1.501376E+02  1.501356E+02  1.501222E+02  1.500994E+02  1.500737E+02
 1.500820E+02  1.500980E+02  1.501141E+02  1.501279E+02  1.501393E+02  1.501471E+02  1.501477E+02  1.501363E+02  1.501129E+02  1.500841E+02
 1.500722E+02  1.500972E+02  1.501182E+02  1.501345E+02  1.501472E+02  1.501563E+02  1.501589E+02  1.501494E+02  1.501262E+02  1.500949E+02
 1.500512E+02  1.500950E+02  1.501226E+02  1.501417E+02  1.501557E+02  1.501658E+02  1.501699E+02  1.501620E+02  1.501390E+02  1.501057E+02
 1.500084E+02  1.500930E+02  1.501285E+02  1.501502E+02  1.501652E+02  1.501760E+02  1.501810E+02  1.501744E+02  1.501516E+02  1.501164E+02
 1.500027E+02  1.501000E+02  1.501383E+02  1.501605E+02  1.501757E+02  1.501866E+02  1.501920E+02  1.501862E+02  1.501633E+02  1.501264E+02
 1.500010E+02  1.501049E+02  1.501456E+02  1.501687E+02  1.501841E+02  1.501951E+02  1.502009E+02  1.501955E+02  1.501726E+02  1.501343E+02
 1.500009E+02  1.501084E+02  1.501509E+02  1.501747E+02  1.501905E+02  1.502017E+02  1.502077E+02  1.502025E+02  1.501793E+02  1.501399E+02
 1.500009E+02  1.501084E+02  1.501509E+02  1.501747E+02  1.501905E+02  1.502017E+02  1.502077E+02  1.502026E+02  1.501794E+02  1.501400E+02
 1.500023E+02  1.501081E+02  1.501504E+02  1.501745E+02  1.501905E+02  1.502019E+02  1.502078E+02  1.502022E+02  1.501785E+02  1.501388E+02
 1.500056E+02  1.501069E+02  1.501482E+02  1.501725E+02  1.501889E+02  1.502004E+02  1.502062E+02  1.501998E+02  1.501751E+02  1.501353E+02
 1.500135E+02  1.501046E+02  1.501445E+02  1.501689E+02  1.501856E+02  1.501974E+02  1.502026E+02  1.501950E+02  1.501692E+02  1.501294E+02
 1.500695E+02  1.501174E+02  1.501483E+02  1.501697E+02  1.501852E+02  1.501961E+02  1.502001E+02  1.501903E+02  1.501628E+02  1.501228E+02
 1.501037E+02  1.501318E+02  1.501552E+02  1.501732E+02  1.501870E+02  1.501967E+02  1.501985E+02  1.501857E+02  1.501557E+02  1.501155E+02
 1.501267E+02  1.501451E+02  1.501630E+02  1.501781E+02  1.501902E+02  1.501982E+02  1.501969E+02  1.501800E+02  1.501472E+02  1.501071E+02
 1.501434E+02  1.501566E+02  1.501707E+02  1.501835E+02  1.501939E+02  1.501993E+02  1.501935E+02  1.501716E+02  1.501363E+02  1.500972E+02
 1.501560E+02  1.501661E+02  1.501776E+02  1.501885E+02  1.501967E+02  1.501977E+02  1.501854E+02  1.501580E+02  1.501215E+02  1.500854E+02
 1.501654E+02  1.501733E+02  1.501827E+02  1.501906E+02  1.501931E+02  1.501853E+02  1.501645E+02  1.501337E+02  1.501005E+02  1.500712E+02


SCALARS pH                   float 1
LOOKUP_TABLE default
 6.145612E+00  6.145638E+00  6.145668E+00  6.145698E+00  6.145725E+00  6.145741E+00  6.145734E+00  6.145684E+00  6.145565E+00  6.145357E+00
 6.145589E+00  6.145617E+00  6.145647E+00  6.145678E+00  6.145708E+00  6.145733E+00  6.145743E+00  6.145721E+00  6.145642E+00  6.145474E+00
 6.145552E+00  6.145606E+00  6.145637E+00  6.145669E+00  6.145700E+00  6.145729E+00  6.145746E+00  6.145736E+00  6.145679E+00  6.145535E+00
 6.145215E+00  6.145581E+00  6.145631E+00  6.145664E+00  6.145696E+00  6.145727E+00  6.145748E+00  6.145747E+00  6.145703E+00  6.145575E+00
 6.141455E+00  6.145424E+00  6.145620E+00  6.145662E+00  6.145696E+00  6.145728E+00  6.145752E+00  6.145757E+00  6.145721E+00  6.145605E+00
 6.111808E+00  6.144051E+00  6.145575E+00  6.145662E+00  6.145699E+00  6.145732E+00  6.145759E+00  6.145767E+00  6.145738E+00  6.145629E+00
 5.964692E+00  6.136033E+00  6.145327E+00  6.145662E+00  6.145706E+00  6.145741E+00  6.145769E+00  6.145780E+00  6.145754E+00  6.145650E+00
 5.964675E+00  6.134013E+00  6.145221E+00  6.145673E+00  6.145720E+00  6.145754E+00  6.145783E+00  6.145795E+00  6.145771E+00  6.145668E+00
 5.964673E+00  6.133064E+00  6.145160E+00  6.145683E+00  6.145732E+00  6.145766E+00  6.145794E+00  6.145807E+00  6.145785E+00  6.145682E+00
 5.964675E+00  6.132682E+00  6.145132E+00  6.145689E+00  6.145740E+00  6.145774E+00  6.145803E+00  6.145816E+00  6.145794E+00  6.145690E+00
 5.964671E+00  6.132677E+00  6.145128E+00  6.145687E+00  6.145739E+00  6.145773E+00  6.145802E+00  6.145815E+00  6.145793E+00  6.145690E+00
 5.964670E+00  6.133056E+00  6.145155E+00  6.145681E+00  6.145733E+00  6.145768E+00  6.145797E+00  6.145810E+00  6.145786E+00  6.145681E+00
 5.964673E+00  6.134003E+00  6.145216E+00  6.145673E+00  6.145724E+00  6.145760E+00  6.145789E+00  6.145801E+00  6.145775E+00  6.145667E+00
 5.964694E+00  6.136023E+00  6.145324E+00  6.145666E+00  6.145715E+00  6.145751E+00  6.145780E+00  6.145790E+00  6.145760E+00  6.145648E+00
 6.111818E+00  6.144052E+00  6.145582E+00  6.145674E+00  6.145715E+00  6.145750E+00  6.145777E+00  6.145783E+00  6.145747E+00  6.145627E+00
 6.141468E+00  6.145438E+00  6.145640E+00  6.145686E+00  6.145722E+00  6.145756E+00  6.145779E+00  6.145778E+00  6.145734E+00  6.145604E+00
 6.145238E+00  6.145610E+00  6.145663E+00  6.145700E+00  6.145735E+00  6.145766E+00  6.145784E+00  6.145774E+00  6.145717E+00  6.145573E+00
 6.145588E+00  6.145647E+00  6.145683E+00  6.145717E+00  6.145750E+00  6.145777E+00  6.145788E+00  6.145765E+00  6.145691E+00  6.145529E+00
 6.145639E+00  6.145672E+00  6.145704E+00  6.145737E+00  6.145767E+00  6.145787E+00  6.145785E+00  6.145745E+00  6.145647E+00  6.145461E+00
 6.145671E+00  6.145701E+00  6.145732E+00  6.145761E+00  6.145782E+00  6.145786E+00  6.145761E+00  6.145689E+00  6.145552E+00  6.145334E+00


SCALARS Total_H+             float 1
LOOKUP_TABLE default
-3.047627E-03 -3.046448E-03 -3.045029E-03 -3.043437E-03 -3.041769E-03 -3.040148E-03 -3.038712E-03 -3.037619E-03 -3.037054E-03 -3.037229E-03
-3.048847E-03 -3.047757E-03 -3.046419E-03 -3.044855E-03 -3.043129E-03 -3.041363E-03 -3.039728E-03 -3.038391E-03 -3.037511E-03 -3.037322E-03
-3.049572E-03 -3.048432E-03 -3.047114E-03 -3.045594E-03 -3.043881E-03 -3.042059E-03 -3.040309E-03 -3.038837E-03 -3.037804E-03 -3.037438E-03
-3.048994E-03 -3.048963E-03 -3.047567E-03 -3.046055E-03 -3.044364E-03 -3.042525E-03 -3.040701E-03 -3.039127E-03 -3.037992E-03 -3.037524E-03
-3.029351E-03 -3.048931E-03 -3.047900E-03 -3.046342E-03 -3.044660E-03 -3.042819E-03 -3.040950E-03 -3.039299E-03 -3.038091E-03 -3.037565E-03
-2.864437E-03 -3.042164E-03 -3.048000E-03 -3.046484E-03 -3.044793E-03 -3.042957E-03 -3.041061E-03 -3.039356E-03 -3.038098E-03 -3.037549E-03
-2.156433E-03 -2.997072E-03 -3.046819E-03 -3.046448E-03 -3.044762E-03 -3.042938E-03 -3.041033E-03 -3.039295E-03 -3.038009E-03 -3.037466E-03
-2.156352E-03 -2.985394E-03 -3.045970E-03 -3.046213E-03 -3.044571E-03 -3.042779E-03 -3.040884E-03 -3.039134E-03 -3.037840E-03 -3.037323E-03
-2.156284E-03 -2.979806E-03 -3.045377E-03 -3.045997E-03 -3.044381E-03 -3.042611E-03 -3.040725E-03 -3.038968E-03 -3.037674E-03 -3.037186E-03
-2.156265E-03 -2.977513E-03 -3.045045E-03 -3.045828E-03 -3.044218E-03 -3.042456E-03 -3.040574E-03 -3.038818E-03 -3.037531E-03 -3.037075E-03
-2.156308E-03 -2.977547E-03 -3.045070E-03 -3.045845E-03 -3.044230E-03 -3.042464E-03 -3.040579E-03 -3.038820E-03 -3.037532E-03 -3.037076E-03
-2.156396E-03 -2.979812E-03 -3.045298E-03 -3.045865E-03 -3.044216E-03 -3.042427E-03 -3.040532E-03 -3.038783E-03 -3.037517E-03 -3.037083E-03
-2.156527E-03 -2.985351E-03 -3.045767E-03 -3.045916E-03 -3.044216E-03 -3.042391E-03 -3.040484E-03 -3.038753E-03 -3.037522E-03 -3.037115E-03
-2.156654E-03 -2.996929E-03 -3.046450E-03 -3.045952E-03 -3.044193E-03 -3.042327E-03 -3.040413E-03 -3.038713E-03 -3.037532E-03 -3.037158E-03
-2.864264E-03 -3.041658E-03 -3.047321E-03 -3.045697E-03 -3.043941E-03 -3.042070E-03 -3.040178E-03 -3.038545E-03 -3.037448E-03 -3.037140E-03
-3.028644E-03 -3.048011E-03 -3.046851E-03 -3.045209E-03 -3.043476E-03 -3.041614E-03 -3.039774E-03 -3.038247E-03 -3.037276E-03 -3.037070E-03
-3.047795E-03 -3.047615E-03 -3.046122E-03 -3.044548E-03 -3.042822E-03 -3.040981E-03 -3.039229E-03 -3.037856E-03 -3.037052E-03 -3.036981E-03
-3.047907E-03 -3.046655E-03 -3.045265E-03 -3.043703E-03 -3.041973E-03 -3.040184E-03 -3.038578E-03 -3.037413E-03 -3.036814E-03 -3.036908E-03
-3.046733E-03 -3.045560E-03 -3.044175E-03 -3.042590E-03 -3.040879E-03 -3.039217E-03 -3.037850E-03 -3.036959E-03 -3.036603E-03 -3.036892E-03
-3.045103E-03 -3.043876E-03 -3.042445E-03 -3.040883E-03 -3.039334E-03 -3.037989E-03 -3.037011E-03 -3.036484E-03 -3.036449E-03 -3.037016E-03


SCALARS Total_SiO2(aq)       float 1
LOOKUP_TABLE default
 1.040229E-02  1.040011E-02  1.040046E-02  1.040115E-02  1.040164E-02  1.040163E-02  1.040097E-02  1.039977E-02  1.039832E-02  1.039693E-02
 1.042876E-02  1.040482E-02  1.040161E-02  1.040195E-02  1.040263E-02  1.040296E-02  1.040255E-02  1.040130E-02  1.039950E-02  1.039767E-02
 1.053887E-02  1.042624E-02  1.040515E-02  1.040289E-02  1.040339E-02  1.040390E-02  1.040375E-02  1.040263E-02  1.040069E-02  1.039851E-02
 1.084135E-02  1.049749E-02  1.041740E-02  1.040494E-02  1.040420E-02  1.040472E-02  1.040479E-02  1.040384E-02  1.040186E-02  1.039942E-02
 1.142660E-02  1.067147E-02  1.045141E-02  1.041016E-02  1.040537E-02  1.040555E-02  1.040575E-02  1.040496E-02  1.040300E-02  1.040036E-02
 1.224841E-02  1.098862E-02  1.052292E-02  1.042163E-02  1.040733E-02  1.040647E-02  1.040669E-02  1.040605E-02  1.040410E-02  1.040130E-02
 1.308626E-02  1.140198E-02  1.062776E-02  1.043972E-02  1.041025E-02  1.040754E-02  1.040766E-02  1.040711E-02  1.040518E-02  1.040223E-02
 1.308527E-02  1.151251E-02  1.068147E-02  1.045230E-02  1.041279E-02  1.040861E-02  1.040861E-02  1.040811E-02  1.040619E-02  1.040310E-02
 1.308470E-02  1.156171E-02  1.071286E-02  1.046095E-02  1.041473E-02  1.040947E-02  1.040938E-02  1.040892E-02  1.040699E-02  1.040379E-02
 1.308459E-02  1.158165E-02  1.072766E-02  1.046554E-02  1.041593E-02  1.041010E-02  1.040997E-02  1.040952E-02  1.040757E-02  1.040427E-02
 1.308484E-02  1.158172E-02  1.072766E-02  1.046553E-02  1.041593E-02  1.041010E-02  1.040997E-02  1.040952E-02  1.040757E-02  1.040428E-02
 1.308549E-02  1.156213E-02  1.071324E-02  1.046141E-02  1.041526E-02  1.041004E-02  1.040998E-02  1.040950E-02  1.040750E-02  1.040418E-02
 1.308658E-02  1.151329E-02  1.068226E-02  1.045326E-02  1.041389E-02  1.040978E-02  1.040982E-02  1.040928E-02  1.040721E-02  1.040387E-02
 1.308805E-02  1.140313E-02  1.062903E-02  1.044125E-02  1.041196E-02  1.040935E-02  1.040951E-02  1.040887E-02  1.040670E-02  1.040336E-02
 1.225028E-02  1.099037E-02  1.052495E-02  1.042393E-02  1.040981E-02  1.040905E-02  1.040928E-02  1.040848E-02  1.040615E-02  1.040279E-02
 1.142903E-02  1.067411E-02  1.045437E-02  1.041338E-02  1.040874E-02  1.040899E-02  1.040915E-02  1.040809E-02  1.040555E-02  1.040216E-02
 1.084472E-02  1.050120E-02  1.042141E-02  1.040915E-02  1.040853E-02  1.040909E-02  1.040901E-02  1.040761E-02  1.040483E-02  1.040143E-02
 1.054343E-02  1.043111E-02  1.041026E-02  1.040815E-02  1.040872E-02  1.040919E-02  1.040874E-02  1.040690E-02  1.040389E-02  1.040057E-02
 1.043460E-02  1.041089E-02  1.040783E-02  1.040827E-02  1.040895E-02  1.040907E-02  1.040806E-02  1.040574E-02  1.040262E-02  1.039954E-02