# vtk DataFile Version 2.0
PFLOTRAN output
ASCII
DATASET UNSTRUCTURED_GRID
POINTS          462 float
 0.000000E+00  0.000000E+00  0.000000E+00
 1.000000E+01  0.000000E+00  0.000000E+00
 2.000000E+01  0.000000E+00  0.000000E+00
 3.000000E+01  0.000000E+00  0.000000E+00
 4.000000E+01  0.000000E+00  0.000000E+00
 5.000000E+01  0.000000E+00  0.000000E+00
 6.000000E+01  0.000000E+00  0.000000E+00
 7.000000E+01  0.000000E+00  0.000000E+00
 8.000000E+01  0.000000E+00  0.000000E+00
 9.000000E+01  0.000000E+00  0.000000E+00
 1.000000E+02  0.000000E+00  0.000000E+00
 0.000000E+00  1.000000E+00  0.000000E+00
 1.000000E+01  1.000000E+00  0.000000E+00
 2.000000E+01  1.000000E+00  0.000000E+00
 3.000000E+01  1.000000E+00  0.000000E+00
 4.000000E+01  1.000000E+00  0.000000E+00
 5.000000E+01  1.000000E+00  0.000000E+00
 6.000000E+01  1.000000E+00  0.000000E+00
 7.000000E+01  1.000000E+00  0.000000E+00
 8.000000E+01  1.000000E+00  0.000000E+00
 9.000000E+01  1.000000E+00  0.000000E+00
 1.000000E+02  1.000000E+00  0.000000E+00
 0.000000E+00  0.000000E+00  5.000000E+00
 1.000000E+01  0.000000E+00  5.000000E+00
 2.000000E+01  0.000000E+00  5.000000E+00
 3.000000E+01  0.000000E+00  5.000000E+00
 4.000000E+01  0.000000E+00  5.000000E+00
 5.000000E+01  0.000000E+00  5.000000E+00
 6.000000E+01  0.000000E+00  5.000000E+00
 7.000000E+01  0.000000E+00  5.000000E+00
 8.000000E+01  0.000000E+00  5.000000E+00
 9.000000E+01  0.000000E+00  5.000000E+00
 1.000000E+02  0.000000E+00  5.000000E+00
 0.000000E+00  1.000000E+00  5.000000E+00
 1.000000E+01  1.000000E+00  5.000000E+00
 2.000000E+01  1.000000E+00  5.000000E+00
 3.000000E+01  1.000000E+00  5.000000E+00
 4.000000E+01  1.000000E+00  5.000000E+00
 5.000000E+01  1.000000E+00  5.000000E+00
 6.000000E+01  1.000000E+00  5.000000E+00
 7.000000E+01  1.000000E+00  5.000000E+00
 8.000000E+01  1.000000E+00  5.000000E+00
 9.000000E+01  1.000000E+00  5.000000E+00
 1.000000E+02  1.000000E+00  5.000000E+00
 0.000000E+00  0.000000E+00  1.000000E+01
 1.000000E+01  0.000000E+00  1.000000E+01
 2.000000E+01  0.000000E+00  1.000000E+01
 3.000000E+01  0.000000E+00  1.000000E+01
 4.000000E+01  0.000000E+00  1.000000E+01
 5.000000E+01  0.000000E+00  1.000000E+01
 6.000000E+01  0.000000E+00  1.000000E+01
 7.000000E+01  0.000000E+00  1.000000E+01
 8.000000E+01  0.000000E+00  1.000000E+01
 9.000000E+01  0.000000E+00  1.000000E+01
 1.000000E+02  0.000000E+00  1.000000E+01
 0.000000E+00  1.000000E+00  1.000000E+01
 1.000000E+01  1.000000E+00  1.000000E+01
 2.000000E+01  1.000000E+00  1.000000E+01
 3.000000E+01  1.000000E+00  1.000000E+01
 4.000000E+01  1.000000E+00  1.000000E+01
 5.000000E+01  1.000000E+00  1.000000E+01
 6.000000E+01  1.000000E+00  1.000000E+01
 7.000000E+01  1.000000E+00  1.000000E+01
 8.000000E+01  1.000000E+00  1.000000E+01
 9.000000E+01  1.000000E+00  1.000000E+01
 1.000000E+02  1.000000E+00  1.000000E+01
 0.000000E+00  0.000000E+00  1.500000E+01
 1.000000E+01  0.000000E+00  1.500000E+01
 2.000000E+01  0.000000E+00  1.500000E+01
 3.000000E+01  0.000000E+00  1.500000E+01
 4.000000E+01  0.000000E+00  1.500000E+01
 5.000000E+01  0.000000E+00  1.500000E+01
 6.000000E+01  0.000000E+00  1.500000E+01
 7.000000E+01  0.000000E+00  1.500000E+01
 8.000000E+01  0.000000E+00  1.500000E+01
 9.000000E+01  0.000000E+00  1.500000E+01
 1.000000E+02  0.000000E+00  1.500000E+01
 0.000000E+00  1.000000E+00  1.500000E+01
 1.000000E+01  1.000000E+00  1.500000E+01
 2.000000E+01  1.000000E+00  1.500000E+01
 3.000000E+01  1.000000E+00  1.500000E+01
 4.000000E+01  1.000000E+00  1.500000E+01
 5.000000E+01  1.000000E+00  1.500000E+01
 6.000000E+01  1.000000E+00  1.500000E+01
 7.000000E+01  1.000000E+00  1.500000E+01
 8.000000E+01  1.000000E+00  1.500000E+01
 9.000000E+01  1.000000E+00  1.500000E+01
 1.000000E+02  1.000000E+00  1.500000E+01
 0.000000E+00  0.000000E+00  2.000000E+01
 1.000000E+01  0.000000E+00  2.000000E+01
 2.000000E+01  0.000000E+00  2.000000E+01
 3.000000E+01  0.000000E+00  2.000000E+01
 4.000000E+01  0.000000E+00  2.000000E+01
 5.000000E+01  0.000000E+00  2.000000E+01
 6.000000E+01  0.000000E+00  2.000000E+01
 7.000000E+01  0.000000E+00  2.000000E+01
 8.000000E+01  0.000000E+00  2.000000E+01
 9.000000E+01  0.000000E+00  2.000000E+01
 1.000000E+02  0.000000E+00  2.000000E+01
 0.000000E+00  1.000000E+00  2.000000E+01
 1.000000E+01  1.000000E+00  2.000000E+01
 2.000000E+01  1.000000E+00  2.000000E+01
 3.000000E+01  1.000000E+00  2.000000E+01
 4.000000E+01  1.000000E+00  2.000000E+01
 5.000000E+01  1.000000E+00  2.000000E+01
 6.000000E+01  1.000000E+00  2.000000E+01
 7.000000E+01  1.000000E+00  2.000000E+01
 8.000000E+01  1.000000E+00  2.000000E+01
 9.000000E+01  1.000000E+00  2.000000E+01
 1.000000E+02  1.000000E+00  2.000000E+01
 0.000000E+00  0.000000E+00  2.500000E+01
 1.000000E+01  0.000000E+00  2.500000E+01
 2.000000E+01  0.000000E+00  2.500000E+01
 3.000000E+01  0.000000E+00  2.500000E+01
 4.000000E+01  0.000000E+00  2.500000E+01
 5.000000E+01  0.000000E+00  2.500000E+01
 6.000000E+01  0.000000E+00  2.500000E+01
 7.000000E+01  0.000000E+00  2.500000E+01
 8.000000E+01  0.000000E+00  2.500000E+01
 9.000000E+01  0.000000E+00  2.500000E+01
 1.000000E+02  0.000000E+00  2.500000E+01
 0.000000E+00  1.000000E+00  2.500000E+01
 1.000000E+01  1.000000E+00  2.500000E+01
 2.000000E+01  1.000000E+00  2.500000E+01
 3.000000E+01  1.000000E+00  2.500000E+01
 4.000000E+01  1.000000E+00  2.500000E+01
 5.000000E+01  1.000000E+00  2.500000E+01
 6.000000E+01  1.000000E+00  2.500000E+01
 7.000000E+01  1.000000E+00  2.500000E+01
 8.000000E+01  1.000000E+00  2.500000E+01
 9.000000E+01  1.000000E+00  2.500000E+01
 1.000000E+02  1.000000E+00  2.500000E+01
 0.000000E+00  0.000000E+00  3.000000E+01
 1.000000E+01  0.000000E+00  3.000000E+01
 2.000000E+01  0.000000E+00  3.000000E+01
 3.000000E+01  0.000000E+00  3.000000E+01
 4.000000E+01  0.000000E+00  3.000000E+01
 5.000000E+01  0.000000E+00  3.000000E+01
 6.000000E+01  0.000000E+00  3.000000E+01
 7.000000E+01  0.000000E+00  3.000000E+01
 8.000000E+01  0.000000E+00  3.000000E+01
 9.000000E+01  0.000000E+00  3.000000E+01
 1.000000E+02  0.000000E+00  3.000000E+01
 0.000000E+00  1.000000E+00  3.000000E+01
 1.000000E+01  1.000000E+00  3.000000E+01
 2.000000E+01  1.000000E+00  3.000000E+01
 3.000000E+01  1.000000E+00  3.000000E+01
 4.000000E+01  1.000000E+00  3.000000E+01
 5.000000E+01  1.000000E+00  3.000000E+01
 6.000000E+01  1.000000E+00  3.000000E+01
 7.000000E+01  1.000000E+00  3.000000E+01
 8.000000E+01  1.000000E+00  3.000000E+01
 9.000000E+01  1.000000E+00  3.000000E+01
 1.000000E+02  1.000000E+00  3.000000E+01
 0.000000E+00  0.000000E+00  3.500000E+01
 1.000000E+01  0.000000E+00  3.500000E+01
 2.000000E+01  0.000000E+00  3.500000E+01
 3.000000E+01  0.000000E+00  3.500000E+01
 4.000000E+01  0.000000E+00  3.500000E+01
 5.000000E+01  0.000000E+00  3.500000E+01
 6.000000E+01  0.000000E+00  3.500000E+01
 7.000000E+01  0.000000E+00  3.500000E+01
 8.000000E+01  0.000000E+00  3.500000E+01
 9.000000E+01  0.000000E+00  3.500000E+01
 1.000000E+02  0.000000E+00  3.500000E+01
 0.000000E+00  1.000000E+00  3.500000E+01
 1.000000E+01  1.000000E+00  3.500000E+01
 2.000000E+01  1.000000E+00  3.500000E+01
 3.000000E+01  1.000000E+00  3.500000E+01
 4.000000E+01  1.000000E+00  3.500000E+01
 5.000000E+01  1.000000E+00  3.500000E+01
 6.000000E+01  1.000000E+00  3.500000E+01
 7.000000E+01  1.000000E+00  3.500000E+01
 8.000000E+01  1.000000E+00  3.500000E+01
 9.000000E+01  1.000000E+00  3.500000E+01
 1.000000E+02  1.000000E+00  3.500000E+01
 0.000000E+00  0.000000E+00  4.000000E+01
 1.000000E+01  0.000000E+00  4.000000E+01
 2.000000E+01  0.000000E+00  4.000000E+01
 3.000000E+01  0.000000E+00  4.000000E+01
 4.000000E+01  0.000000E+00  4.000000E+01
 5.000000E+01  0.000000E+00  4.000000E+01
 6.000000E+01  0.000000E+00  4.000000E+01
 7.000000E+01  0.000000E+00  4.000000E+01
 8.000000E+01  0.000000E+00  4.000000E+01
 9.000000E+01  0.000000E+00  4.000000E+01
 1.000000E+02  0.000000E+00  4.000000E+01
 0.000000E+00  1.000000E+00  4.000000E+01
 1.000000E+01  1.000000E+00  4.000000E+01
 2.000000E+01  1.000000E+00  4.000000E+01
 3.000000E+01  1.000000E+00  4.000000E+01
 4.000000E+01  1.000000E+00  4.000000E+01
 5.000000E+01  1.000000E+00  4.000000E+01
 6.000000E+01  1.000000E+00  4.000000E+01
 7.000000E+01  1.000000E+00  4.000000E+01
 8.000000E+01  1.000000E+00  4.000000E+01
 9.000000E+01  1.000000E+00  4.000000E+01
 1.000000E+02  1.000000E+00  4.000000E+01
 0.000000E+00  0.000000E+00  4.500000E+01
 1.000000E+01  0.000000E+00  4.500000E+01
 2.000000E+01  0.000000E+00  4.500000E+01
 3.000000E+01  0.000000E+00  4.500000E+01
 4.000000E+01  0.000000E+00  4.500000E+01
 5.000000E+01  0.000000E+00  4.500000E+01
 6.000000E+01  0.000000E+00  4.500000E+01
 7.000000E+01  0.000000E+00  4.500000E+01
 8.000000E+01  0.000000E+00  4.500000E+01
 9.000000E+01  0.000000E+00  4.500000E+01
 1.000000E+02  0.000000E+00  4.500000E+01
 0.000000E+00  1.000000E+00  4.500000E+01
 1.000000E+01  1.000000E+00  4.500000E+01
 2.000000E+01  1.000000E+00  4.500000E+01
 3.000000E+01  1.000000E+00  4.500000E+01
 4.000000E+01  1.000000E+00  4.500000E+01
 5.000000E+01  1.000000E+00  4.500000E+01
 6.000000E+01  1.000000E+00  4.500000E+01
 7.000000E+01  1.000000E+00  4.500000E+01
 8.000000E+01  1.000000E+00  4.500000E+01
 9.000000E+01  1.000000E+00  4.500000E+01
 1.000000E+02  1.000000E+00  4.500000E+01
 0.000000E+00  0.000000E+00  5.000000E+01
 1.000000E+01  0.000000E+00  5.000000E+01
 2.000000E+01  0.000000E+00  5.000000E+01
 3.000000E+01  0.000000E+00  5.000000E+01
 4.000000E+01  0.000000E+00  5.000000E+01
 5.000000E+01  0.000000E+00  5.000000E+01
 6.000000E+01  0.000000E+00  5.000000E+01
 7.000000E+01  0.000000E+00  5.000000E+01
 8.000000E+01  0.000000E+00  5.000000E+01
 9.000000E+01  0.000000E+00  5.000000E+01
 1.000000E+02  0.000000E+00  5.000000E+01
 0.000000E+00  1.000000E+00  5.000000E+01
 1.000000E+01  1.000000E+00  5.000000E+01
 2.000000E+01  1.000000E+00  5.000000E+01
 3.000000E+01  1.000000E+00  5.000000E+01
[...]
CELL_DATA      200
SCALARS Porosity             float 1
LOOKUP_TABLE default
 4.377153E-01  4.377153E-01  4.377153E-01  4.377153E-01  4.377153E-01  4.377152E-01  4.377152E-01  4.377152E-01  4.377152E-01  4.377152E-01
 4.377152E-01  4.377153E-01  4.377153E-01  4.377153E-01  4.377153E-01  4.377152E-01  4.377152E-01  4.377152E-01  4.377152E-01  4.377152E-01
 4.377146E-01  4.377152E-01  4.377153E-01  4.377153E-01  4.377153E-01  4.377153E-01  4.377152E-01  4.377152E-01  4.377152E-01  4.377152E-01
 4.377122E-01  4.377149E-01  4.377152E-01  4.377153E-01  4.377153E-01  4.377153E-01  4.377152E-01  4.377152E-01  4.377152E-01  4.377152E-01
 4.377070E-01  4.377136E-01  4.377151E-01  4.377152E-01  4.377153E-01  4.377153E-01  4.377152E-01  4.377152E-01  4.377152E-01  4.377152E-01
 4.377123E-01  4.377109E-01  4.377146E-01  4.377152E-01  4.377153E-01  4.377153E-01  4.377152E-01  4.377152E-01  4.377152E-01  4.377152E-01
 4.377766E-01  4.377105E-01  4.377138E-01  4.377151E-01  4.377152E-01  4.377153E-01  4.377152E-01  4.377152E-01  4.377152E-01  4.377152E-01
 4.377766E-01  4.377102E-01  4.377134E-01  4.377151E-01  4.377152E-01  4.377153E-01  4.377152E-01  4.377152E-01  4.377152E-01  4.377152E-01
 4.377766E-01  4.377102E-01  4.377132E-01  4.377150E-01  4.377152E-01  4.377153E-01  4.377152E-01  4.377152E-01  4.377152E-01  4.377152E-01
 4.377766E-01  4.377101E-01  4.377131E-01  4.377150E-01  4.377152E-01  4.377153E-01  4.377152E-01  4.377152E-01  4.377152E-01  4.377152E-01
 4.377766E-01  4.377101E-01  4.377131E-01  4.377150E-01  4.377152E-01  4.377153E-01  4.377153E-01  4.377152E-01  4.377152E-01  4.377152E-01
 4.377766E-01  4.377102E-01  4.377132E-01  4.377150E-01  4.377152E-01  4.377153E-01  4.377153E-01  4.377152E-01  4.377152E-01  4.377152E-01
 4.377766E-01  4.377102E-01  4.377134E-01  4.377151E-01  4.377152E-01  4.377153E-01  4.377153E-01  4.377152E-01  4.377152E-01  4.377152E-01
 4.377765E-01  4.377104E-01  4.377138E-01  4.377151E-01  4.377152E-01  4.377153E-01  4.377153E-01  4.377152E-01  4.377152E-01  4.377152E-01
 4.377122E-01  4.377109E-01  4.377146E-01  4.377152E-01  4.377153E-01  4.377153E-01  4.377153E-01  4.377152E-01  4.377152E-01  4.377152E-01
 4.377070E-01  4.377136E-01  4.377151E-01  4.377152E-01  4.377153E-01  4.377153E-01  4.377153E-01  4.377152E-01  4.377152E-01  4.377152E-01
 4.377122E-01  4.377149E-01  4.377152E-01  4.377153E-01  4.377153E-01  4.377153E-01  4.377153E-01  4.377152E-01  4.377152E-01  4.377152E-01
 4.377146E-01  4.377152E-01  4.377153E-01  4.377153E-01  4.377153E-01  4.377153E-01  4.377153E-01  4.377152E-01  4.377152E-01  4.377152E-01
 4.377152E-01  4.377153E-01  4.377153E-01  4.377153E-01  4.377153E-01  4.377153E-01  4.377153E-01  4.377152E-01  4.377152E-01  4.377152E-01
 4.377153E-01  4.377153E-01  4.377153E-01  4.377153E-01  4.377153E-01  4.377153E-01  4.377153E-01  4.377152E-01  4.377152E-01  4.377152E-01


SCALARS Permeability         float 1
LOOKUP_TABLE default
 1.000000E-12  1.000000E-12  1.000000E-12  1.000000E-12  1.000000E-12  1.000000E-12  1.000000E-12  1.000000E-12  1.000000E-12  1.000000E-12
 1.000000E-12  1.000000E-12  1.000000E-12  1.000000E-12  1.000000E-12  1.000000E-12  1.000000E-12  1.000000E-12  1.000000E-12  1.000000E-12
 1.000000E-12  1.000000E-12  1.000000E-12  1.000000E-12  1.000000E-12  1.000000E-12  1.000000E-12  1.000000E-12  1.000000E-12  1.000000E-12
 1.000000E-12  1.000000E-12  1.000000E-12  1.000000E-12  1.000000E-12  1.000000E-12  1.000000E-12  1.000000E-12  1.000000E-12  1.000000E-12
 1.000000E-12  1.000000E-12  1.000000E-12  1.000000E-12  1.000000E-12  1.000000E-12  1.000000E-12  1.000000E-12  1.000000E-12  1.000000E-12
 1.000000E-12  1.000000E-12  1.000000E-12  1.000000E-12  1.000000E-12  1.000000E-12  1.000000E-12  1.000000E-12  1.000000E-12  1.000000E-12
 1.000000E-12  1.000000E-12  1.000000E-12  1.000000E-12  1.000000E-12  1.000000E-12  1.000000E-12  1.000000E-12  1.000000E-12  1.000000E-12
 1.000000E-12  1.000000E-12  1.000000E-12  1.000000E-12  1.000000E-12  1.000000E-12  1.000000E-12  1.000000E-12  1.000000E-12  1.000000E-12
 1.000000E-12  1.000000E-12  1.000000E-12  1.000000E-12  1.000000E-12  1.000000E-12  1.000000E-12  1.000000E-12  1.000000E-12  1.000000E-12
 1.000000E-12  1.000000E-12  1.000000E-12  1.000000E-12  1.000000E-12  1.000000E-12  1.000000E-12  1.000000E-12  1.000000E-12  1.000000E-12
 1.000000E-12  1.000000E-12  1.000000E-12  1.000000E-12  1.000000E-12  1.000000E-12  1.000000E-12  1.000000E-12  1.000000E-12  1.000000E-12
 1.000000E-12  1.000000E-12  1.000000E-12  1.000000E-12  1.000000E-12  1.000000E-12  1.000000E-12  1.000000E-12  1.000000E-12  1.000000E-12
 1.000000E-12  1.000000E-12  1.000000E-12  1.000000E-12  1.000000E-12  1.000000E-12  1.000000E-12  1.000000E-12  1.000000E-12  1.000000E-12
 1.000000E-12  1.000000E-12  1.000000E-12  1.000000E-12  1.000000E-12  1.000000E-12  1.000000E-12  1.000000E-12  1.000000E-12  1.000000E-12
 1.000000E-12  1.000000E-12  1.000000E-12  1.000000E-12  1.000000E-12  1.000000E-12  1.000000E-12  1.000000E-12  1.000000E-12  1.000000E-12
 1.000000E-12  1.000000E-12  1.000000E-12  1.000000E-12  1.000000E-12  1.000000E-12  1.000000E-12  1.000000E-12  1.000000E-12  1.000000E-12
 1.000000E-12  1.000000E-12  1.000000E-12  1.000000E-12  1.000000E-12  1.000000E-12  1.000000E-12  1.000000E-12  1.000000E-12  1.000000E-12
 1.000000E-12  1.000000E-12  1.000000E-12  1.000000E-12  1.000000E-12  1.000000E-12  1.000000E-12  1.000000E-12  1.000000E-12  1.000000E-12
 1.000000E-12  1.000000E-12  1.000000E-12  1.000000E-12  1.000000E-12  1.000000E-12  1.000000E-12  1.000000E-12  1.000000E-12  1.000000E-12
 1.000000E-12  1.000000E-12  1.000000E-12  1.000000E-12  1.000000E-12  1.000000E-12  1.000000E-12  1.000000E-12  1.000000E-12  1.000000E-12


SCALARS Liquid_Pressure      float 1
LOOKUP_TABLE default
 7.948020E+06  7.908331E+06  7.849318E+06  7.785411E+06  7.723860E+06  7.667420E+06  7.616660E+06  7.571247E+06  7.530559E+06  7.493958E+06
 7.922698E+06  7.876223E+06  7.811524E+06  7.744142E+06  7.680701E+06  7.623279E+06  7.572017E+06  7.526345E+06  7.485520E+06  7.448837E+06
 7.920608E+06  7.857932E+06  7.781005E+06  7.706560E+06  7.639393E+06  7.580068E+06  7.527840E+06  7.481673E+06  7.440585E+06  7.403747E+06
 7.949844E+06  7.854833E+06  7.757430E+06  7.672215E+06  7.599638E+06  7.537617E+06  7.484038E+06  7.437185E+06  7.395733E+06  7.358680E+06
 8.026583E+06  7.868355E+06  7.739936E+06  7.640344E+06  7.560981E+06  7.495682E+06  7.440487E+06  7.392818E+06  7.350936E+06  7.313629E+06
 8.182479E+06  7.898304E+06  7.726630E+06  7.609806E+06  7.522826E+06  7.453959E+06  7.397031E+06  7.348495E+06  7.306159E+06  7.268584E+06
 8.480625E+06  7.938126E+06  7.714030E+06  7.579081E+06  7.484471E+06  7.412109E+06  7.353505E+06  7.304137E+06  7.261366E+06  7.223536E+06
 8.628887E+06  7.962304E+06  7.697093E+06  7.546466E+06  7.445191E+06  7.369794E+06  7.309747E+06  7.259665E+06  7.216522E+06  7.178475E+06
 8.689194E+06  7.963909E+06  7.672301E+06  7.510504E+06  7.404347E+06  7.326721E+06  7.265614E+06  7.215011E+06  7.171597E+06  7.133393E+06
 8.690849E+06  7.941979E+06  7.637730E+06  7.470197E+06  7.361473E+06  7.282669E+06  7.221004E+06  7.170126E+06  7.126570E+06  7.088283E+06
 8.645641E+06  7.896810E+06  7.592574E+06  7.425046E+06  7.316326E+06  7.237524E+06  7.175860E+06  7.124984E+06  7.081429E+06  7.043143E+06
 8.553574E+06  7.828402E+06  7.536834E+06  7.375054E+06  7.268906E+06  7.191285E+06  7.130184E+06  7.079584E+06  7.036174E+06  6.997972E+06
 8.402878E+06  7.736468E+06  7.471317E+06  7.320717E+06  7.219456E+06  7.144070E+06  7.084030E+06  7.033954E+06  6.990816E+06  6.952775E+06
 8.164279E+06  7.621977E+06  7.397951E+06  7.263034E+06  7.168443E+06  7.096094E+06  7.037502E+06  6.988142E+06  6.945378E+06  6.907556E+06
 7.775899E+06  7.491861E+06  7.320254E+06  7.203464E+06  7.116506E+06  7.047655E+06  6.990741E+06  6.942216E+06  6.899889E+06  6.862324E+06
 7.529768E+06  7.371629E+06  7.243266E+06  7.143708E+06  7.064370E+06  6.999089E+06  6.943910E+06  6.896254E+06  6.854384E+06  6.817088E+06
 7.362782E+06  7.267826E+06  7.170468E+06  7.085286E+06  7.012735E+06  6.950736E+06  6.897175E+06  6.850338E+06  6.808900E+06  6.771859E+06
 7.243281E+06  7.180641E+06  7.103751E+06  7.029339E+06  6.962200E+06  6.902898E+06  6.850691E+06  6.804542E+06  6.763470E+06  6.726646E+06
 7.155092E+06  7.108643E+06  7.043978E+06  6.976629E+06  6.913217E+06  6.855821E+06  6.804582E+06  6.758930E+06  6.718123E+06  6.681456E+06
 7.090121E+06  7.050456E+06  6.991476E+06  6.927604E+06  6.866085E+06  6.809674E+06  6.758939E+06  6.713548E+06  6.672880E+06  6.636296E+06


SCALARS Temperature          float 1
LOOKUP_TABLE default
 1.500268E+02  1.500245E+02  1.500221E+02  1.500189E+02  1.500154E+02  1.500119E+02  1.500086E+02  1.500056E+02  1.500030E+02  1.500007E+02
 1.500331E+02  1.500267E+02  1.500229E+02  1.500193E+02  1.500155E+02  1.500119E+02  1.500086E+02  1.500056E+02  1.500030E+02  1.500007E+02
 1.500494E+02  1.500330E+02  1.500253E+02  1.500203E+02  1.500160E+02  1.500121E+02  1.500087E+02  1.500057E+02  1.500030E+02  1.500007E+02
 1.500711E+02  1.500455E+02  1.500302E+02  1.500222E+02  1.500168E+02  1.500125E+02  1.500089E+02  1.500058E+02  1.500031E+02  1.500007E+02
 1.500785E+02  1.500623E+02  1.500384E+02  1.500251E+02  1.500179E+02  1.500129E+02  1.500091E+02  1.500059E+02  1.500031E+02  1.500007E+02
 1.500576E+02  1.500764E+02  1.500495E+02  1.500293E+02  1.500193E+02  1.500135E+02  1.500093E+02  1.500060E+02  1.500032E+02  1.500007E+02
 1.500105E+02  1.500834E+02  1.500614E+02  1.500343E+02  1.500210E+02  1.500141E+02  1.500095E+02  1.500061E+02  1.500032E+02  1.500007E+02
 1.500051E+02  1.500934E+02  1.500725E+02  1.500393E+02  1.500226E+02  1.500147E+02  1.500098E+02  1.500062E+02  1.500033E+02  1.500008E+02
 1.500035E+02  1.500995E+02  1.500802E+02  1.500432E+02  1.500240E+02  1.500151E+02  1.500100E+02  1.500063E+02  1.500033E+02  1.500008E+02
 1.500035E+02  1.501032E+02  1.500848E+02  1.500456E+02  1.500248E+02  1.500154E+02  1.500101E+02  1.500063E+02  1.500033E+02  1.500008E+02
 1.500035E+02  1.501032E+02  1.500848E+02  1.500456E+02  1.500248E+02  1.500155E+02  1.500101E+02  1.500063E+02  1.500033E+02  1.500008E+02
 1.500048E+02  1.501019E+02  1.500821E+02  1.500442E+02  1.500244E+02  1.500153E+02  1.500101E+02  1.500063E+02  1.500033E+02  1.500008E+02
 1.500079E+02  1.500984E+02  1.500762E+02  1.500412E+02  1.500235E+02  1.500150E+02  1.500100E+02  1.500063E+02  1.500033E+02  1.500008E+02
 1.500155E+02  1.500914E+02  1.500667E+02  1.500369E+02  1.500221E+02  1.500146E+02  1.500098E+02  1.500062E+02  1.500033E+02  1.500008E+02
 1.500747E+02  1.500896E+02  1.500562E+02  1.500322E+02  1.500206E+02  1.500141E+02  1.500096E+02  1.500061E+02  1.500032E+02  1.500007E+02
 1.501028E+02  1.500766E+02  1.500450E+02  1.500280E+02  1.500192E+02  1.500136E+02  1.500094E+02  1.500060E+02  1.500032E+02  1.500007E+02
 1.500940E+02  1.500573E+02  1.500357E+02  1.500247E+02  1.500180E+02  1.500131E+02  1.500092E+02  1.500059E+02  1.500031E+02  1.500007E+02
 1.500653E+02  1.500413E+02  1.500294E+02  1.500223E+02  1.500170E+02  1.500126E+02  1.500090E+02  1.500058E+02  1.500031E+02  1.500007E+02
 1.500420E+02  1.500317E+02  1.500256E+02  1.500207E+02  1.500163E+02  1.500123E+02  1.500088E+02  1.500057E+02  1.500031E+02  1.500007E+02
 1.500306E+02  1.500269E+02  1.500235E+02  1.500197E+02  1.500158E+02  1.500121E+02  1.500087E+02  1.500057E+02  1.500030E+02  1.500007E+02


SCALARS pH                   float 1
LOOKUP_TABLE default
 6.144097E+00  6.144080E+00  6.144073E+00  6.144068E+00  6.144062E+00  6.144057E+00  6.144052E+00  6.144047E+00  6.144043E+00  6.144040E+00
 6.144208E+00  6.144105E+00  6.144078E+00  6.144069E+00  6.144062E+00  6.144057E+00  6.144052E+00  6.144047E+00  6.144043E+00  6.144040E+00
 6.144497E+00  6.144197E+00  6.144097E+00  6.144072E+00  6.144063E+00  6.144057E+00  6.144052E+00  6.144047E+00  6.144043E+00  6.144040E+00
 6.144720E+00  6.144399E+00  6.144153E+00  6.144083E+00  6.144065E+00  6.144057E+00  6.144052E+00  6.144047E+00  6.144043E+00  6.144040E+00
 6.142349E+00  6.144604E+00  6.144261E+00  6.144107E+00  6.144069E+00  6.144058E+00  6.144052E+00  6.144047E+00  6.144043E+00  6.144040E+00
 6.120692E+00  6.143888E+00  6.144392E+00  6.144149E+00  6.144077E+00  6.144060E+00  6.144053E+00  6.144048E+00  6.144043E+00  6.144040E+00
 6.005333E+00  6.137829E+00  6.144358E+00  6.144197E+00  6.144088E+00  6.144062E+00  6.144053E+00  6.144048E+00  6.144043E+00  6.144040E+00
 6.005324E+00  6.136372E+00  6.144357E+00  6.144233E+00  6.144096E+00  6.144063E+00  6.144053E+00  6.144048E+00  6.144044E+00  6.144040E+00
 6.005326E+00  6.135692E+00  6.144354E+00  6.144257E+00  6.144103E+00  6.144065E+00  6.144054E+00  6.144048E+00  6.144044E+00  6.144040E+00
 6.005328E+00  6.135419E+00  6.144352E+00  6.144269E+00  6.144107E+00  6.144065E+00  6.144054E+00  6.144048E+00  6.144044E+00  6.144040E+00
 6.005324E+00  6.135415E+00  6.144351E+00  6.144269E+00  6.144107E+00  6.144066E+00  6.144054E+00  6.144048E+00  6.144044E+00  6.144040E+00
 6.005319E+00  6.135684E+00  6.144351E+00  6.144257E+00  6.144104E+00  6.144065E+00  6.144054E+00  6.144048E+00  6.144044E+00  6.144040E+00
 6.005315E+00  6.136361E+00  6.144353E+00  6.144233E+00  6.144098E+00  6.144064E+00  6.144054E+00  6.144048E+00  6.144044E+00  6.144040E+00
 6.005324E+00  6.137817E+00  6.144355E+00  6.144199E+00  6.144089E+00  6.144062E+00  6.144053E+00  6.144048E+00  6.144044E+00  6.144040E+00
 6.120694E+00  6.143884E+00  6.144393E+00  6.144152E+00  6.144079E+00  6.144061E+00  6.144053E+00  6.144048E+00  6.144044E+00  6.144040E+00
 6.142352E+00  6.144607E+00  6.144266E+00  6.144111E+00  6.144071E+00  6.144059E+00  6.144053E+00  6.144048E+00  6.144043E+00  6.144040E+00
 6.144724E+00  6.144405E+00  6.144158E+00  6.144086E+00  6.144067E+00  6.144058E+00  6.144052E+00  6.144048E+00  6.144043E+00  6.144040E+00
 6.144503E+00  6.144204E+00  6.144102E+00  6.144075E+00  6.144064E+00  6.144058E+00  6.144052E+00  6.144047E+00  6.144043E+00  6.144040E+00
 6.144214E+00  6.144110E+00  6.144081E+00  6.144070E+00  6.144063E+00  6.144057E+00  6.144052E+00  6.144047E+00  6.144043E+00  6.144040E+00
 6.144100E+00  6.144082E+00  6.144075E+00  6.144068E+00  6.144062E+00  6.144057E+00  6.144052E+00  6.144047E+00  6.144043E+00  6.144040E+00


SCALARS Total_H+             float 1
LOOKUP_TABLE default
-3.061576E-03 -3.061748E-03 -3.061858E-03 -3.061978E-03 -3.062109E-03 -3.062236E-03 -3.062354E-03 -3.062460E-03 -3.062554E-03 -3.062638E-03
-3.060693E-03 -3.061529E-03 -3.061807E-03 -3.061964E-03 -3.062104E-03 -3.062234E-03 -3.062354E-03 -3.062460E-03 -3.062554E-03 -3.062638E-03
-3.058312E-03 -3.060765E-03 -3.061617E-03 -3.061914E-03 -3.062086E-03 -3.062227E-03 -3.062350E-03 -3.062458E-03 -3.062553E-03 -3.062638E-03
-3.053966E-03 -3.059089E-03 -3.061132E-03 -3.061797E-03 -3.062053E-03 -3.062215E-03 -3.062345E-03 -3.062456E-03 -3.062552E-03 -3.062637E-03
-3.036823E-03 -3.056282E-03 -3.060200E-03 -3.061562E-03 -3.061997E-03 -3.062197E-03 -3.062338E-03 -3.062453E-03 -3.062551E-03 -3.062637E-03
-2.914085E-03 -3.048648E-03 -3.058782E-03 -3.061179E-03 -3.061909E-03 -3.062174E-03 -3.062329E-03 -3.062449E-03 -3.062549E-03 -3.062636E-03
-2.333686E-03 -3.011841E-03 -3.056483E-03 -3.060698E-03 -3.061797E-03 -3.062147E-03 -3.062320E-03 -3.062445E-03 -3.062547E-03 -3.062635E-03
-2.333632E-03 -3.002567E-03 -3.055161E-03 -3.060316E-03 -3.061698E-03 -3.062121E-03 -3.062312E-03 -3.062441E-03 -3.062546E-03 -3.062634E-03
-2.333571E-03 -2.998172E-03 -3.054336E-03 -3.060041E-03 -3.061619E-03 -3.062100E-03 -3.062305E-03 -3.062438E-03 -3.062544E-03 -3.062634E-03
-2.333551E-03 -2.996374E-03 -3.053926E-03 -3.059889E-03 -3.061573E-03 -3.062087E-03 -3.062300E-03 -3.062436E-03 -3.062543E-03 -3.062634E-03
-2.333594E-03 -2.996402E-03 -3.053934E-03 -3.059887E-03 -3.061570E-03 -3.062085E-03 -3.062299E-03 -3.062436E-03 -3.062543E-03 -3.062633E-03
-2.333677E-03 -2.998189E-03 -3.054310E-03 -3.060014E-03 -3.061603E-03 -3.062092E-03 -3.062300E-03 -3.062436E-03 -3.062543E-03 -3.062634E-03
-2.333794E-03 -3.002559E-03 -3.055096E-03 -3.060265E-03 -3.061669E-03 -3.062107E-03 -3.062304E-03 -3.062438E-03 -3.062544E-03 -3.062634E-03
-2.333884E-03 -3.011778E-03 -3.056373E-03 -3.060625E-03 -3.061759E-03 -3.062128E-03 -3.062311E-03 -3.062440E-03 -3.062545E-03 -3.062634E-03
-2.913920E-03 -3.048386E-03 -3.058609E-03 -3.061088E-03 -3.061865E-03 -3.062152E-03 -3.062319E-03 -3.062443E-03 -3.062546E-03 -3.062635E-03
-3.036326E-03 -3.055928E-03 -3.060009E-03 -3.061469E-03 -3.061952E-03 -3.062175E-03 -3.062327E-03 -3.062447E-03 -3.062548E-03 -3.062635E-03
-3.053405E-03 -3.058760E-03 -3.060962E-03 -3.061713E-03 -3.062012E-03 -3.062195E-03 -3.062334E-03 -3.062450E-03 -3.062549E-03 -3.062636E-03
-3.057880E-03 -3.060517E-03 -3.061486E-03 -3.061848E-03 -3.062053E-03 -3.062210E-03 -3.062341E-03 -3.062453E-03 -3.062551E-03 -3.062636E-03
-3.060434E-03 -3.061372E-03 -3.061721E-03 -3.061919E-03 -3.062080E-03 -3.062222E-03 -3.062347E-03 -3.062456E-03 -3.062552E-03 -3.062637E-03
-3.061464E-03 -3.061677E-03 -3.061818E-03 -3.061956E-03 -3.062097E-03 -3.062230E-03 -3.062350E-03 -3.062458E-03 -3.062553E-03 -3.062637E-03


SCALARS Total_SiO2(aq)       float 1
LOOKUP_TABLE default
 1.063412E-02  1.063318E-02  1.063288E-02  1.063259E-02  1.063228E-02  1.063197E-02  1.063169E-02  1.063143E-02  1.063120E-02  1.063099E-02
 1.064503E-02  1.063448E-02  1.063304E-02  1.063262E-02  1.063228E-02  1.063196E-02  1.063167E-02  1.063141E-02  1.063118E-02  1.063098E-02
 1.070888E-02  1.064338E-02  1.063404E-02  1.063275E-02  1.063231E-02  1.063197E-02  1.063167E-02  1.063140E-02  1.063117E-02  1.063096E-02
 1.093431E-02  1.068346E-02  1.063895E-02  1.063328E-02  1.063239E-02  1.063198E-02  1.063167E-02  1.063139E-02  1.063116E-02  1.063095E-02
 1.144684E-02  1.080678E-02  1.065691E-02  1.063516E-02  1.063258E-02  1.063202E-02  1.063167E-02  1.063139E-02  1.063115E-02  1.063094E-02
 1.222859E-02  1.106947E-02  1.070359E-02  1.064052E-02  1.063308E-02  1.063207E-02  1.063167E-02  1.063138E-02  1.063113E-02  1.063092E-02
 1.305663E-02  1.144420E-02  1.078262E-02  1.065070E-02  1.063404E-02  1.063216E-02  1.063168E-02  1.063137E-02  1.063112E-02  1.063091E-02
 1.305567E-02  1.154390E-02  1.082299E-02  1.065771E-02  1.063482E-02  1.063224E-02  1.063169E-02  1.063137E-02  1.063111E-02  1.063089E-02
 1.305511E-02  1.158849E-02  1.084686E-02  1.066260E-02  1.063542E-02  1.063230E-02  1.063169E-02  1.063136E-02  1.063110E-02  1.063088E-02
 1.305500E-02  1.160655E-02  1.085809E-02  1.066514E-02  1.063575E-02  1.063233E-02  1.063169E-02  1.063135E-02  1.063109E-02  1.063086E-02
 1.305525E-02  1.160661E-02  1.085808E-02  1.066512E-02  1.063573E-02  1.063231E-02  1.063167E-02  1.063133E-02  1.063107E-02  1.063085E-02
 1.305589E-02  1.158885E-02  1.084699E-02  1.066262E-02  1.063540E-02  1.063227E-02  1.063165E-02  1.063132E-02  1.063105E-02  1.063083E-02
 1.305698E-02  1.154453E-02  1.082325E-02  1.065777E-02  1.063480E-02  1.063219E-02  1.063162E-02  1.063130E-02  1.063104E-02  1.063082E-02
 1.305842E-02  1.144507E-02  1.078298E-02  1.065078E-02  1.063401E-02  1.063209E-02  1.063159E-02  1.063127E-02  1.063102E-02  1.063080E-02
 1.223042E-02  1.107051E-02  1.070400E-02  1.064060E-02  1.063303E-02  1.063197E-02  1.063156E-02  1.063125E-02  1.063100E-02  1.063078E-02
 1.144879E-02  1.080777E-02  1.065725E-02  1.063520E-02  1.063251E-02  1.063189E-02  1.063152E-02  1.063123E-02  1.063098E-02  1.063077E-02
 1.093602E-02  1.068420E-02  1.063917E-02  1.063326E-02  1.063227E-02  1.063183E-02  1.063149E-02  1.063120E-02  1.063096E-02  1.063075E-02
 1.070997E-02  1.064379E-02  1.063412E-02  1.063267E-02  1.063215E-02  1.063177E-02  1.063145E-02  1.063118E-02  1.063094E-02  1.063073E-02
 1.064549E-02  1.063461E-02  1.063298E-02  1.063246E-02  1.063207E-02  1.063173E-02  1.063143E-02  1.063116E-02  1.063092E-02  1.063072E-02