# vtk DataFile Version 2.0
PFLOTRAN output
ASCII
DATASET UNSTRUCTURED_GRID
POINTS          462 float
 0.000000E+00  0.000000E+00  0.000000E+00
 2.000000E+03  0.000000E+00  0.000000E+00
 4.000000E+03  0.000000E+00  0.000000E+00
 6.000000E+03  0.000000E+00  0.000000E+00
 8.000000E+03  0.000000E+00  0.000000E+00
 1.000000E+04  0.000000E+00  0.000000E+00
 1.200000E+04  0.000000E+00  0.000000E+00
 1.400000E+04  0.000000E+00  0.000000E+00
 1.600000E+04  0.000000E+00  0.000000E+00
 1.800000E+04  0.000000E+00  0.000000E+00
 2.000000E+04  0.000000E+00  0.000000E+00
 0.000000E+00  1.000000E+00  0.000000E+00
 2.000000E+03  1.000000E+00  0.000000E+00
 4.000000E+03  1.000000E+00  0.000000E+00
 6.000000E+03  1.000000E+00  0.000000E+00
 8.000000E+03  1.000000E+00  0.000000E+00
 1.000000E+04  1.000000E+00  0.000000E+00
 1.200000E+04  1.000000E+00  0.000000E+00
 1.400000E+04  1.000000E+00  0.000000E+00
 1.600000E+04  1.000000E+00  0.000000E+00
 1.800000E+04  1.000000E+00  0.000000E+00
 2.000000E+04  1.000000E+00  0.000000E+00
 0.000000E+00  0.000000E+00  5.000000E+00
 2.000000E+03  0.000000E+00  5.000000E+00
 4.000000E+03  0.000000E+00  5.000000E+00
 6.000000E+03  0.000000E+00  5.000000E+00
 8.000000E+03  0.000000E+00  5.000000E+00
 1.000000E+04  0.000000E+00  5.000000E+00
 1.200000E+04  0.000000E+00  5.000000E+00
 1.400000E+04  0.000000E+00  5.000000E+00
 1.600000E+04  0.000000E+00  5.000000E+00
 1.800000E+04  0.000000E+00  5.000000E+00
 2.000000E+04  0.000000E+00  5.000000E+00
 0.000000E+00  1.000000E+00  5.000000E+00
 2.000000E+03  1.000000E+00  5.000000E+00
 4.000000E+03  1.000000E+00  5.000000E+00
 6.000000E+03  1.000000E+00  5.000000E+00
 8.000000E+03  1.000000E+00  5.000000E+00
 1.000000E+04  1.000000E+00  5.000000E+00
 1.200000E+04  1.000000E+00  5.000000E+00
 1.400000E+04  1.000000E+00  5.000000E+00
 1.600000E+04  1.000000E+00  5.000000E+00
 1.800000E+04  1.000000E+00  5.000000E+00
 2.000000E+04  1.000000E+00  5.000000E+00
 0.000000E+00  0.000000E+00  1.000000E+01
 2.000000E+03  0.000000E+00  1.000000E+01
 4.000000E+03  0.000000E+00  1.000000E+01
 6.000000E+03  0.000000E+00  1.000000E+01
 8.000000E+03  0.000000E+00  1.000000E+01
 1.000000E+04  0.000000E+00  1.000000E+01
 1.200000E+04  0.000000E+00  1.000000E+01
 1.400000E+04  0.000000E+00  1.000000E+01
 1.600000E+04  0.000000E+00  1.000000E+01
 1.800000E+04  0.000000E+00  1.000000E+01
 2.000000E+04  0.000000E+00  1.000000E+01
 0.000000E+00  1.000000E+00  1.000000E+01
 2.000000E+03  1.000000E+00  1.000000E+01
 4.000000E+03  1.000000E+00  1.000000E+01
 6.000000E+03  1.000000E+00  1.000000E+01
 8.000000E+03  1.000000E+00  1.000000E+01
 1.000000E+04  1.000000E+00  1.000000E+01
 1.200000E+04  1.000000E+00  1.000000E+01
 1.400000E+04  1.000000E+00  1.000000E+01
 1.600000E+04  1.000000E+00  1.000000E+01
 1.800000E+04  1.000000E+00  1.000000E+01
 2.000000E+04  1.000000E+00  1.000000E+01
 0.000000E+00  0.000000E+00  1.500000E+01
 2.000000E+03  0.000000E+00  1.500000E+01
 4.000000E+03  0.000000E+00  1.500000E+01
 6.000000E+03  0.000000E+00  1.500000E+01
 8.000000E+03  0.000000E+00  1.500000E+01
 1.000000E+04  0.000000E+00  1.500000E+01
 1.200000E+04  0.000000E+00  1.500000E+01
 1.400000E+04  0.000000E+00  1.500000E+01
 1.600000E+04  0.000000E+00  1.500000E+01
 1.800000E+04  0.000000E+00  1.500000E+01
 2.000000E+04  0.000000E+00  1.500000E+01
 0.000000E+00  1.000000E+00  1.500000E+01
 2.000000E+03  1.000000E+00  1.500000E+01
 4.000000E+03  1.000000E+00  1.500000E+01
 6.000000E+03  1.000000E+00  1.500000E+01
 8.000000E+03  1.000000E+00  1.500000E+01
 1.000000E+04  1.000000E+00  1.500000E+01
 1.200000E+04  1.000000E+00  1.500000E+01
 1.400000E+04  1.000000E+00  1.500000E+01
 1.600000E+04  1.000000E+00  1.500000E+01
 1.800000E+04  1.000000E+00  1.500000E+01
 2.000000E+04  1.000000E+00  1.500000E+01
 0.000000E+00  0.000000E+00  2.000000E+01
 2.000000E+03  0.000000E+00  2.000000E+01
 4.000000E+03  0.000000E+00  2.000000E+01
 6.000000E+03  0.000000E+00  2.000000E+01
 8.000000E+03  0.000000E+00  2.000000E+01
 1.000000E+04  0.000000E+00  2.000000E+01
 1.200000E+04  0.000000E+00  2.000000E+01
 1.400000E+04  0.000000E+00  2.000000E+01
 1.600000E+04  0.000000E+00  2.000000E+01
 1.800000E+04  0.000000E+00  2.000000E+01
 2.000000E+04  0.000000E+00  2.000000E+01
 0.000000E+00  1.000000E+00  2.000000E+01
 2.000000E+03  1.000000E+00  2.000000E+01
 4.000000E+03  1.000000E+00  2.000000E+01
 6.000000E+03  1.000000E+00  2.000000E+01
 8.000000E+03  1.000000E+00  2.000000E+01
 1.000000E+04  1.000000E+00  2.000000E+01
 1.200000E+04  1.000000E+00  2.000000E+01
 1.400000E+04  1.000000E+00  2.000000E+01
 1.600000E+04  1.000000E+00  2.000000E+01
 1.800000E+04  1.000000E+00  2.000000E+01
 2.000000E+04  1.000000E+00  2.000000E+01
 0.000000E+00  0.000000E+00  2.500000E+01
 2.000000E+03  0.000000E+00  2.500000E+01
 4.000000E+03  0.000000E+00  2.500000E+01
 6.000000E+03  0.000000E+00  2.500000E+01
 8.000000E+03  0.000000E+00  2.500000E+01
 1.000000E+04  0.000000E+00  2.500000E+01
 1.200000E+04  0.000000E+00  2.500000E+01
 1.400000E+04  0.000000E+00  2.500000E+01
 1.600000E+04  0.000000E+00  2.500000E+01
 1.800000E+04  0.000000E+00  2.500000E+01
 2.000000E+04  0.000000E+00  2.500000E+01
 0.000000E+00  1.000000E+00  2.500000E+01
 2.000000E+03  1.000000E+00  2.500000E+01
 4.000000E+03  1.000000E+00  2.500000E+01
 6.000000E+03  1.000000E+00  2.500000E+01
 8.000000E+03  1.000000E+00  2.500000E+01
 1.000000E+04  1.000000E+00  2.500000E+01
 1.200000E+04  1.000000E+00  2.500000E+01
 1.400000E+04  1.000000E+00  2.500000E+01
 1.600000E+04  1.000000E+00  2.500000E+01
 1.800000E+04  1.000000E+00  2.500000E+01
 2.000000E+04  1.000000E+00  2.500000E+01
 0.000000E+00  0.000000E+00  3.000000E+01
 2.000000E+03  0.000000E+00  3.000000E+01
 4.000000E+03  0.000000E+00  3.000000E+01
 6.000000E+03  0.000000E+00  3.000000E+01
 8.000000E+03  0.000000E+00  3.000000E+01
 1.000000E+04  0.000000E+00  3.000000E+01
 1.200000E+04  0.000000E+00  3.000000E+01
 1.400000E+04  0.000000E+00  3.000000E+01
 1.600000E+04  0.000000E+00  3.000000E+01
 1.800000E+04  0.000000E+00  3.000000E+01
 2.000000E+04  0.000000E+00  3.000000E+01
 0.000000E+00  1.000000E+00  3.000000E+01
 2.000000E+03  1.000000E+00  3.000000E+01
 4.000000E+03  1.000000E+00  3.000000E+01
 6.000000E+03  1.000000E+00  3.000000E+01
 8.000000E+03  1.000000E+00  3.000000E+01
 1.000000E+04  1.000000E+00  3.000000E+01
 1.200000E+04  1.000000E+00  3.000000E+01
 1.400000E+04  1.000000E+00  3.000000E+01
 1.600000E+04  1.000000E+00  3.000000E+01
 1.800000E+04  1.000000E+00  3.000000E+01
 2.000000E+04  1.000000E+00  3.000000E+01
 0.000000E+00  0.000000E+00  3.500000E+01
 2.000000E+03  0.000000E+00  3.500000E+01
 4.000000E+03  0.000000E+00  3.500000E+01
 6.000000E+03  0.000000E+00  3.500000E+01
 8.000000E+03  0.000000E+00  3.500000E+01
 1.000000E+04  0.000000E+00  3.500000E+01
 1.200000E+04  0.000000E+00  3.500000E+01
 1.400000E+04  0.000000E+00  3.500000E+01
 1.600000E+04  0.000000E+00  3.500000E+01
 1.800000E+04  0.000000E+00  3.500000E+01
 2.000000E+04  0.000000E+00  3.500000E+01
 0.000000E+00  1.000000E+00  3.500000E+01
 2.000000E+03  1.000000E+00  3.500000E+01
 4.000000E+03  1.000000E+00  3.500000E+01
 6.000000E+03  1.000000E+00  3.500000E+01
 8.000000E+03  1.000000E+00  3.500000E+01
 1.000000E+04  1.000000E+00  3.500000E+01
 1.200000E+04  1.000000E+00  3.500000E+01
 1.400000E+04  1.000000E+00  3.500000E+01
 1.600000E+04  1.000000E+00  3.500000E+01
 1.800000E+04  1.000000E+00  3.500000E+01
 2.000000E+04  1.000000E+00  3.500000E+01
 0.000000E+00  0.000000E+00  4.000000E+01
 2.000000E+03  0.000000E+00  4.000000E+01
 4.000000E+03  0.000000E+00  4.000000E+01
 6.000000E+03  0.000000E+00  4.000000E+01
 8.000000E+03  0.000000E+00  4.000000E+01
 1.000000E+04  0.000000E+00  4.000000E+01
 1.200000E+04  0.000000E+00  4.000000E+01
 1.400000E+04  0.000000E+00  4.000000E+01
 1.600000E+04  0.000000E+00  4.000000E+01
 1.800000E+04  0.000000E+00  4.000000E+01
 2.000000E+04  0.000000E+00  4.000000E+01
 0.000000E+00  1.000000E+00  4.000000E+01
 2.000000E+03  1.000000E+00  4.000000E+01
 4.000000E+03  1.000000E+00  4.000000E+01
 6.000000E+03  1.000000E+00  4.000000E+01
 8.000000E+03  1.000000E+00  4.000000E+01
 1.000000E+04  1.000000E+00  4.000000E+01
 1.200000E+04  1.000000E+00  4.000000E+01
 1.400000E+04  1.000000E+00  4.000000E+01
 1.600000E+04  1.000000E+00  4.000000E+01
 1.800000E+04  1.000000E+00  4.000000E+01
 2.000000E+04  1.000000E+00  4.000000E+01
 0.000000E+00  0.000000E+00  4.500000E+01
 2.000000E+03  0.000000E+00  4.500000E+01
 4.000000E+03  0.000000E+00  4.500000E+01
 6.000000E+03  0.000000E+00  4.500000E+01
 8.000000E+03  0.000000E+00  4.500000E+01
 1.000000E+04  0.000000E+00  4.500000E+01
 1.200000E+04  0.000000E+00  4.500000E+01
 1.400000E+04  0.000000E+00  4.500000E+01
 1.600000E+04  0.000000E+00  4.500000E+01
 1.800000E+04  0.000000E+00  4.500000E+01
 2.000000E+04  0.000000E+00  4.500000E+01
 0.000000E+00  1.000000E+00  4.500000E+01
 2.000000E+03  1.000000E+00  4.500000E+01
 4.000000E+03  1.000000E+00  4.500000E+01
 6.000000E+03  1.000000E+00  4.500000E+01
 8.000000E+03  1.000000E+00  4.500000E+01
 1.000000E+04  1.000000E+00  4.500000E+01
 1.200000E+04  1.000000E+00  4.500000E+01
 1.400000E+04  1.000000E+00  4.500000E+01
 1.600000E+04  1.000000E+00  4.500000E+01
 1.800000E+04  1.000000E+00  4.500000E+01
 2.000000E+04  1.000000E+00  4.500000E+01
 0.000000E+00  0.000000E+00  5.000000E+01
 2.000000E+03  0.000000E+00  5.000000E+01
 4.000000E+03  0.000000E+00  5.000000E+01
 6.000000E+03  0.000000E+00  5.000000E+01
 8.000000E+03  0.000000E+00  5.000000E+01
 1.000000E+04  0.000000E+00  5.000000E+01
 1.200000E+04  0.000000E+00  5.000000E+01
 1.400000E+04  0.000000E+00  5.000000E+01
 1.600000E+04  0.000000E+00  5.000000E+01
 1.800000E+04  0.000000E+00  5.000000E+01
 2.000000E+04  0.000000E+00  5.000000E+01
 0.000000E+00  1.000000E+00  5.000000E+01
 2.000000E+03  1.000000E+00  5.000000E+01
 4.000000E+03  1.000000E+00  5.000000E+01
 6.000000E+03  1.000000E+00  5.000000E+01
[...]
CELL_DATA      200
SCALARS Porosity             float 1
LOOKUP_TABLE default
 4.377100E-01  4.377100E-01  4.377100E-01  4.377100E-01  4.377100E-01  4.377100E-01  4.377100E-01  4.377100E-01  4.377100E-01  4.377100E-01
 4.377100E-01  4.377100E-01  4.377100E-01  4.377100E-01  4.377100E-01  4.377100E-01  4.377100E-01  4.377100E-01  4.377100E-01  4.377100E-01
 4.377100E-01  4.377100E-01  4.377100E-01  4.377100E-01  4.377100E-01  4.377100E-01  4.377100E-01  4.377100E-01  4.377100E-01  4.377100E-01
 4.377100E-01  4.377100E-01  4.377100E-01  4.377100E-01  4.377100E-01  4.377100E-01  4.377100E-01  4.377100E-01  4.377100E-01  4.377100E-01
 4.377100E-01  4.377100E-01  4.377100E-01  4.377100E-01  4.377100E-01  4.377100E-01  4.377100E-01  4.377100E-01  4.377100E-01  4.377100E-01
 4.377100E-01  4.377100E-01  4.377100E-01  4.377100E-01  4.377100E-01  4.377100E-01  4.377100E-01  4.377100E-01  4.377100E-01  4.377100E-01
 4.377098E-01  4.377100E-01  4.377100E-01  4.377100E-01  4.377100E-01  4.377100E-01  4.377100E-01  4.377100E-01  4.377100E-01  4.377100E-01
 4.377098E-01  4.377100E-01  4.377100E-01  4.377100E-01  4.377100E-01  4.377100E-01  4.377100E-01  4.377100E-01  4.377100E-01  4.377100E-01
 4.377098E-01  4.377100E-01  4.377100E-01  4.377100E-01  4.377100E-01  4.377100E-01  4.377100E-01  4.377100E-01  4.377100E-01  4.377100E-01
 4.377098E-01  4.377100E-01  4.377100E-01  4.377100E-01  4.377100E-01  4.377100E-01  4.377100E-01  4.377100E-01  4.377100E-01  4.377100E-01
 4.377098E-01  4.377100E-01  4.377100E-01  4.377100E-01  4.377100E-01  4.377100E-01  4.377100E-01  4.377100E-01  4.377100E-01  4.377100E-01
 4.377098E-01  4.377100E-01  4.377100E-01  4.377100E-01  4.377100E-01  4.377100E-01  4.377100E-01  4.377100E-01  4.377100E-01  4.377100E-01
 4.377098E-01  4.377100E-01  4.377100E-01  4.377100E-01  4.377100E-01  4.377100E-01  4.377100E-01  4.377100E-01  4.377100E-01  4.377100E-01
 4.377098E-01  4.377100E-01  4.377100E-01  4.377100E-01  4.377100E-01  4.377100E-01  4.377100E-01  4.377100E-01  4.377100E-01  4.377100E-01
 4.377100E-01  4.377100E-01  4.377100E-01  4.377100E-01  4.377100E-01  4.377100E-01  4.377100E-01  4.377100E-01  4.377100E-01  4.377100E-01
 4.377100E-01  4.377100E-01  4.377100E-01  4.377100E-01  4.377100E-01  4.377100E-01  4.377100E-01  4.377100E-01  4.377100E-01  4.377100E-01
 4.377100E-01  4.377100E-01  4.377100E-01  4.377100E-01  4.377100E-01  4.377100E-01  4.377100E-01  4.377100E-01  4.377100E-01  4.377100E-01
 4.377100E-01  4.377100E-01  4.377100E-01  4.377100E-01  4.377100E-01  4.377100E-01  4.377100E-01  4.377100E-01  4.377100E-01  4.377100E-01
 4.377100E-01  4.377100E-01  4.377100E-01  4.377100E-01  4.377100E-01  4.377100E-01  4.377100E-01  4.377100E-01  4.377100E-01  4.377100E-01
 4.377100E-01  4.377100E-01  4.377100E-01  4.377100E-01  4.377100E-01  4.377100E-01  4.377100E-01  4.377100E-01  4.377100E-01  4.377100E-01


SCALARS Permeability         float 1
LOOKUP_TABLE default
 8.829805E-13  8.829804E-13  8.829804E-13  8.829803E-13  8.829803E-13  8.829803E-13  8.829803E-13  8.829803E-13  8.829803E-13  8.829803E-13
 8.829805E-13  8.829804E-13  8.829804E-13  8.829803E-13  8.829803E-13  8.829803E-13  8.829803E-13  8.829803E-13  8.829803E-13  8.829803E-13
 8.829805E-13  8.829804E-13  8.829804E-13  8.829803E-13  8.829803E-13  8.829803E-13  8.829803E-13  8.829803E-13  8.829803E-13  8.829803E-13
 8.829805E-13  8.829804E-13  8.829804E-13  8.829803E-13  8.829803E-13  8.829803E-13  8.829803E-13  8.829803E-13  8.829803E-13  8.829803E-13
 8.829805E-13  8.829804E-13  8.829804E-13  8.829803E-13  8.829803E-13  8.829803E-13  8.829803E-13  8.829803E-13  8.829803E-13  8.829803E-13
 8.829805E-13  8.829804E-13  8.829804E-13  8.829804E-13  8.829803E-13  8.829803E-13  8.829803E-13  8.829803E-13  8.829803E-13  8.829803E-13
 8.829797E-13  8.829804E-13  8.829804E-13  8.829804E-13  8.829803E-13  8.829803E-13  8.829803E-13  8.829803E-13  8.829803E-13  8.829803E-13
 8.829797E-13  8.829804E-13  8.829804E-13  8.829804E-13  8.829803E-13  8.829803E-13  8.829803E-13  8.829803E-13  8.829803E-13  8.829803E-13
 8.829797E-13  8.829804E-13  8.829804E-13  8.829804E-13  8.829803E-13  8.829803E-13  8.829803E-13  8.829803E-13  8.829803E-13  8.829803E-13
 8.829797E-13  8.829804E-13  8.829804E-13  8.829804E-13  8.829804E-13  8.829803E-13  8.829803E-13  8.829803E-13  8.829803E-13  8.829803E-13
 8.829797E-13  8.829804E-13  8.829804E-13  8.829804E-13  8.829804E-13  8.829803E-13  8.829803E-13  8.829803E-13  8.829803E-13  8.829803E-13
 8.829798E-13  8.829804E-13  8.829804E-13  8.829804E-13  8.829804E-13  8.829803E-13  8.829803E-13  8.829803E-13  8.829803E-13  8.829803E-13
 8.829798E-13  8.829804E-13  8.829804E-13  8.829804E-13  8.829804E-13  8.829804E-13  8.829803E-13  8.829803E-13  8.829803E-13  8.829803E-13
 8.829798E-13  8.829804E-13  8.829804E-13  8.829804E-13  8.829804E-13  8.829804E-13  8.829804E-13  8.829803E-13  8.829803E-13  8.829803E-13
 8.829805E-13  8.829804E-13  8.829804E-13  8.829804E-13  8.829804E-13  8.829804E-13  8.829804E-13  8.829803E-13  8.829803E-13  8.829803E-13
 8.829805E-13  8.829804E-13  8.829804E-13  8.829804E-13  8.829804E-13  8.829804E-13  8.829804E-13  8.829804E-13  8.829803E-13  8.829803E-13
 8.829805E-13  8.829804E-13  8.829804E-13  8.829804E-13  8.829804E-13  8.829804E-13  8.829804E-13  8.829804E-13  8.829804E-13  8.829803E-13
 8.829805E-13  8.829804E-13  8.829804E-13  8.829804E-13  8.829804E-13  8.829804E-13  8.829804E-13  8.829804E-13  8.829804E-13  8.829804E-13
 8.829805E-13  8.829804E-13  8.829804E-13  8.829804E-13  8.829804E-13  8.829804E-13  8.829804E-13  8.829804E-13  8.829804E-13  8.829804E-13
 8.829805E-13  8.829805E-13  8.829804E-13  8.829804E-13  8.829804E-13  8.829804E-13  8.829804E-13  8.829804E-13  8.829804E-13  8.829804E-13


SCALARS Liquid_Pressure      float 1
LOOKUP_TABLE default
 8.278473E+06  7.910165E+06  7.743734E+06  7.649337E+06  7.591800E+06  7.555098E+06  7.530192E+06  7.511703E+06  7.496596E+06  7.483381E+06
 8.233306E+06  7.865003E+06  7.698577E+06  7.604182E+06  7.546646E+06  7.509945E+06  7.485039E+06  7.466551E+06  7.451444E+06  7.438229E+06
 8.188146E+06  7.819842E+06  7.653420E+06  7.559028E+06  7.501493E+06  7.464793E+06  7.439888E+06  7.421401E+06  7.406294E+06  7.393079E+06
 8.142991E+06  7.774682E+06  7.608265E+06  7.513875E+06  7.456342E+06  7.419642E+06  7.394738E+06  7.376251E+06  7.361145E+06  7.347931E+06
 8.097843E+06  7.729524E+06  7.563111E+06  7.468723E+06  7.411192E+06  7.374493E+06  7.349590E+06  7.331103E+06  7.315997E+06  7.302783E+06
 8.052700E+06  7.684367E+06  7.517958E+06  7.423573E+06  7.366043E+06  7.329345E+06  7.304442E+06  7.285956E+06  7.270851E+06  7.257637E+06
 8.007564E+06  7.639211E+06  7.472807E+06  7.378424E+06  7.320895E+06  7.284198E+06  7.259296E+06  7.240811E+06  7.225705E+06  7.212492E+06
 7.962422E+06  7.594057E+06  7.427656E+06  7.333276E+06  7.275749E+06  7.239053E+06  7.214151E+06  7.195666E+06  7.180561E+06  7.167348E+06
 7.917273E+06  7.548904E+06  7.382507E+06  7.288129E+06  7.230603E+06  7.193909E+06  7.169008E+06  7.150523E+06  7.135419E+06  7.122206E+06
 7.872119E+06  7.503752E+06  7.337360E+06  7.242984E+06  7.185460E+06  7.148766E+06  7.123865E+06  7.105381E+06  7.090277E+06  7.077065E+06
 7.826959E+06  7.458601E+06  7.292213E+06  7.197840E+06  7.140317E+06  7.103624E+06  7.078724E+06  7.060241E+06  7.045137E+06  7.031925E+06
 7.781794E+06  7.413452E+06  7.247068E+06  7.152697E+06  7.095176E+06  7.058484E+06  7.033584E+06  7.015101E+06  6.999998E+06  6.986786E+06
 7.736622E+06  7.368304E+06  7.201924E+06  7.107555E+06  7.050035E+06  7.013344E+06  6.988446E+06  6.969963E+06  6.954860E+06  6.941649E+06
 7.691444E+06  7.323157E+06  7.156781E+06  7.062415E+06  7.004897E+06  6.968207E+06  6.943309E+06  6.924826E+06  6.909724E+06  6.896513E+06
 7.646261E+06  7.278011E+06  7.111640E+06  7.017276E+06  6.959759E+06  6.923070E+06  6.898173E+06  6.879691E+06  6.864589E+06  6.851378E+06
 7.601083E+06  7.232867E+06  7.066500E+06  6.972138E+06  6.914623E+06  6.877934E+06  6.853038E+06  6.834556E+06  6.819455E+06  6.806244E+06
 7.555912E+06  7.187724E+06  7.021361E+06  6.927002E+06  6.869488E+06  6.832800E+06  6.807904E+06  6.789423E+06  6.774322E+06  6.761112E+06
 7.510746E+06  7.142582E+06  6.976223E+06  6.881867E+06  6.824354E+06  6.787667E+06  6.762772E+06  6.744292E+06  6.729191E+06  6.715981E+06
 7.465587E+06  7.097441E+06  6.931087E+06  6.836733E+06  6.779221E+06  6.742536E+06  6.717641E+06  6.699161E+06  6.684061E+06  6.670851E+06
 7.420434E+06  7.052302E+06  6.885952E+06  6.791600E+06  6.734090E+06  6.697406E+06  6.672511E+06  6.654032E+06  6.638932E+06  6.625723E+06


SCALARS Temperature          float 1
LOOKUP_TABLE default
 1.500455E+02  1.500238E+02  1.500139E+02  1.500083E+02  1.500049E+02  1.500027E+02  1.500013E+02  1.500002E+02  1.499993E+02  1.499985E+02
 1.500455E+02  1.500238E+02  1.500139E+02  1.500083E+02  1.500049E+02  1.500027E+02  1.500013E+02  1.500002E+02  1.499993E+02  1.499985E+02
 1.500455E+02  1.500238E+02  1.500139E+02  1.500083E+02  1.500049E+02  1.500027E+02  1.500013E+02  1.500002E+02  1.499993E+02  1.499985E+02
 1.500455E+02  1.500238E+02  1.500139E+02  1.500083E+02  1.500049E+02  1.500027E+02  1.500013E+02  1.500002E+02  1.499993E+02  1.499985E+02
 1.500455E+02  1.500238E+02  1.500139E+02  1.500083E+02  1.500049E+02  1.500027E+02  1.500013E+02  1.500002E+02  1.499993E+02  1.499985E+02
 1.500455E+02  1.500238E+02  1.500139E+02  1.500083E+02  1.500049E+02  1.500027E+02  1.500013E+02  1.500002E+02  1.499993E+02  1.499985E+02
 1.500454E+02  1.500238E+02  1.500139E+02  1.500083E+02  1.500049E+02  1.500027E+02  1.500013E+02  1.500002E+02  1.499993E+02  1.499985E+02
 1.500454E+02  1.500238E+02  1.500139E+02  1.500083E+02  1.500049E+02  1.500027E+02  1.500013E+02  1.500002E+02  1.499993E+02  1.499985E+02
 1.500454E+02  1.500238E+02  1.500139E+02  1.500083E+02  1.500049E+02  1.500027E+02  1.500013E+02  1.500002E+02  1.499993E+02  1.499985E+02
 1.500454E+02  1.500238E+02  1.500139E+02  1.500083E+02  1.500049E+02  1.500027E+02  1.500013E+02  1.500002E+02  1.499993E+02  1.499985E+02
 1.500454E+02  1.500238E+02  1.500139E+02  1.500083E+02  1.500049E+02  1.500027E+02  1.500013E+02  1.500002E+02  1.499993E+02  1.499985E+02
 1.500454E+02  1.500238E+02  1.500139E+02  1.500083E+02  1.500049E+02  1.500027E+02  1.500013E+02  1.500002E+02  1.499993E+02  1.499985E+02
 1.500455E+02  1.500238E+02  1.500139E+02  1.500083E+02  1.500049E+02  1.500028E+02  1.500013E+02  1.500002E+02  1.499993E+02  1.499985E+02
 1.500455E+02  1.500238E+02  1.500139E+02  1.500083E+02  1.500049E+02  1.500028E+02  1.500013E+02  1.500002E+02  1.499993E+02  1.499985E+02
 1.500457E+02  1.500238E+02  1.500139E+02  1.500083E+02  1.500049E+02  1.500028E+02  1.500013E+02  1.500002E+02  1.499993E+02  1.499985E+02
 1.500457E+02  1.500238E+02  1.500139E+02  1.500083E+02  1.500049E+02  1.500028E+02  1.500013E+02  1.500002E+02  1.499993E+02  1.499985E+02
 1.500457E+02  1.500238E+02  1.500139E+02  1.500083E+02  1.500049E+02  1.500028E+02  1.500013E+02  1.500002E+02  1.499993E+02  1.499985E+02
 1.500457E+02  1.500238E+02  1.500139E+02  1.500083E+02  1.500049E+02  1.500028E+02  1.500013E+02  1.500002E+02  1.499993E+02  1.499985E+02
 1.500457E+02  1.500238E+02  1.500140E+02  1.500083E+02  1.500049E+02  1.500028E+02  1.500013E+02  1.500002E+02  1.499993E+02  1.499985E+02
 1.500456E+02  1.500238E+02  1.500140E+02  1.500084E+02  1.500049E+02  1.500028E+02  1.500013E+02  1.500002E+02  1.499993E+02  1.499985E+02


SCALARS pH                   float 1
LOOKUP_TABLE default
 6.144373E+00  6.144341E+00  6.144326E+00  6.144318E+00  6.144312E+00  6.144309E+00  6.144307E+00  6.144305E+00  6.144304E+00  6.144303E+00
 6.144373E+00  6.144341E+00  6.144326E+00  6.144318E+00  6.144312E+00  6.144309E+00  6.144307E+00  6.144305E+00  6.144304E+00  6.144303E+00
 6.144373E+00  6.144341E+00  6.144326E+00  6.144318E+00  6.144313E+00  6.144309E+00  6.144307E+00  6.144305E+00  6.144304E+00  6.144303E+00
 6.144373E+00  6.144341E+00  6.144326E+00  6.144318E+00  6.144313E+00  6.144309E+00  6.144307E+00  6.144305E+00  6.144304E+00  6.144303E+00
 6.144373E+00  6.144341E+00  6.144326E+00  6.144318E+00  6.144313E+00  6.144309E+00  6.144307E+00  6.144305E+00  6.144304E+00  6.144303E+00
 6.144373E+00  6.144341E+00  6.144326E+00  6.144318E+00  6.144313E+00  6.144309E+00  6.144307E+00  6.144305E+00  6.144304E+00  6.144303E+00
 6.144377E+00  6.144341E+00  6.144326E+00  6.144318E+00  6.144313E+00  6.144309E+00  6.144307E+00  6.144305E+00  6.144304E+00  6.144303E+00
 6.144377E+00  6.144341E+00  6.144326E+00  6.144318E+00  6.144313E+00  6.144309E+00  6.144307E+00  6.144305E+00  6.144304E+00  6.144303E+00
 6.144377E+00  6.144341E+00  6.144326E+00  6.144318E+00  6.144313E+00  6.144309E+00  6.144307E+00  6.144305E+00  6.144304E+00  6.144303E+00
 6.144377E+00  6.144341E+00  6.144326E+00  6.144318E+00  6.144313E+00  6.144309E+00  6.144307E+00  6.144305E+00  6.144304E+00  6.144303E+00
 6.144377E+00  6.144341E+00  6.144326E+00  6.144318E+00  6.144313E+00  6.144309E+00  6.144307E+00  6.144305E+00  6.144304E+00  6.144303E+00
 6.144377E+00  6.144341E+00  6.144326E+00  6.144318E+00  6.144313E+00  6.144309E+00  6.144307E+00  6.144305E+00  6.144304E+00  6.144303E+00
 6.144377E+00  6.144341E+00  6.144326E+00  6.144318E+00  6.144313E+00  6.144309E+00  6.144307E+00  6.144305E+00  6.144304E+00  6.144303E+00
 6.144377E+00  6.144341E+00  6.144326E+00  6.144318E+00  6.144313E+00  6.144309E+00  6.144307E+00  6.144306E+00  6.144304E+00  6.144303E+00
 6.144373E+00  6.144341E+00  6.144326E+00  6.144318E+00  6.144313E+00  6.144309E+00  6.144307E+00  6.144306E+00  6.144304E+00  6.144303E+00
 6.144373E+00  6.144341E+00  6.144326E+00  6.144318E+00  6.144313E+00  6.144309E+00  6.144307E+00  6.144306E+00  6.144304E+00  6.144303E+00
 6.144373E+00  6.144341E+00  6.144326E+00  6.144318E+00  6.144313E+00  6.144309E+00  6.144307E+00  6.144306E+00  6.144304E+00  6.144303E+00
 6.144373E+00  6.144341E+00  6.144326E+00  6.144318E+00  6.144313E+00  6.144309E+00  6.144307E+00  6.144306E+00  6.144304E+00  6.144303E+00
 6.144373E+00  6.144341E+00  6.144326E+00  6.144318E+00  6.144313E+00  6.144309E+00  6.144307E+00  6.144306E+00  6.144304E+00  6.144303E+00
 6.144373E+00  6.144341E+00  6.144326E+00  6.144318E+00  6.144313E+00  6.144309E+00  6.144307E+00  6.144306E+00  6.144304E+00  6.144303E+00


SCALARS Total_H+             float 1
LOOKUP_TABLE default
-3.044059E-03 -3.044811E-03 -3.045154E-03 -3.045350E-03 -3.045470E-03 -3.045546E-03 -3.045598E-03 -3.045637E-03 -3.045668E-03 -3.045694E-03
-3.044059E-03 -3.044810E-03 -3.045154E-03 -3.045349E-03 -3.045469E-03 -3.045546E-03 -3.045598E-03 -3.045636E-03 -3.045667E-03 -3.045694E-03
-3.044059E-03 -3.044810E-03 -3.045153E-03 -3.045349E-03 -3.045469E-03 -3.045545E-03 -3.045597E-03 -3.045636E-03 -3.045667E-03 -3.045693E-03
-3.044058E-03 -3.044809E-03 -3.045153E-03 -3.045349E-03 -3.045468E-03 -3.045545E-03 -3.045597E-03 -3.045635E-03 -3.045666E-03 -3.045693E-03
-3.044058E-03 -3.044809E-03 -3.045152E-03 -3.045348E-03 -3.045468E-03 -3.045544E-03 -3.045596E-03 -3.045635E-03 -3.045666E-03 -3.045692E-03
-3.044058E-03 -3.044808E-03 -3.045152E-03 -3.045348E-03 -3.045467E-03 -3.045544E-03 -3.045596E-03 -3.045634E-03 -3.045665E-03 -3.045692E-03
-3.044044E-03 -3.044808E-03 -3.045151E-03 -3.045347E-03 -3.045467E-03 -3.045543E-03 -3.045595E-03 -3.045634E-03 -3.045665E-03 -3.045691E-03
-3.044043E-03 -3.044807E-03 -3.045151E-03 -3.045347E-03 -3.045466E-03 -3.045543E-03 -3.045595E-03 -3.045633E-03 -3.045664E-03 -3.045691E-03
-3.044042E-03 -3.044806E-03 -3.045150E-03 -3.045346E-03 -3.045466E-03 -3.045542E-03 -3.045594E-03 -3.045633E-03 -3.045664E-03 -3.045691E-03
-3.044041E-03 -3.044806E-03 -3.045150E-03 -3.045346E-03 -3.045465E-03 -3.045542E-03 -3.045594E-03 -3.045632E-03 -3.045663E-03 -3.045690E-03
-3.044041E-03 -3.044805E-03 -3.045149E-03 -3.045345E-03 -3.045465E-03 -3.045542E-03 -3.045594E-03 -3.045632E-03 -3.045663E-03 -3.045690E-03
-3.044040E-03 -3.044805E-03 -3.045149E-03 -3.045345E-03 -3.045464E-03 -3.045541E-03 -3.045593E-03 -3.045632E-03 -3.045663E-03 -3.045689E-03
-3.044039E-03 -3.044804E-03 -3.045148E-03 -3.045344E-03 -3.045464E-03 -3.045541E-03 -3.045593E-03 -3.045631E-03 -3.045662E-03 -3.045689E-03
-3.044038E-03 -3.044804E-03 -3.045148E-03 -3.045344E-03 -3.045463E-03 -3.045540E-03 -3.045592E-03 -3.045631E-03 -3.045662E-03 -3.045688E-03
-3.044047E-03 -3.044803E-03 -3.045147E-03 -3.045343E-03 -3.045463E-03 -3.045540E-03 -3.045592E-03 -3.045630E-03 -3.045661E-03 -3.045688E-03
-3.044047E-03 -3.044802E-03 -3.045147E-03 -3.045343E-03 -3.045463E-03 -3.045539E-03 -3.045591E-03 -3.045630E-03 -3.045661E-03 -3.045687E-03
-3.044047E-03 -3.044802E-03 -3.045146E-03 -3.045342E-03 -3.045462E-03 -3.045539E-03 -3.045591E-03 -3.045629E-03 -3.045660E-03 -3.045687E-03
-3.044047E-03 -3.044801E-03 -3.045146E-03 -3.045342E-03 -3.045462E-03 -3.045538E-03 -3.045590E-03 -3.045629E-03 -3.045660E-03 -3.045687E-03
-3.044046E-03 -3.044801E-03 -3.045145E-03 -3.045341E-03 -3.045461E-03 -3.045538E-03 -3.045590E-03 -3.045628E-03 -3.045659E-03 -3.045686E-03
-3.044046E-03 -3.044800E-03 -3.045145E-03 -3.045341E-03 -3.045461E-03 -3.045537E-03 -3.045589E-03 -3.045628E-03 -3.045659E-03 -3.045686E-03


SCALARS Total_SiO2(aq)       float 1
LOOKUP_TABLE default
 1.039595E-02  1.039409E-02  1.039324E-02  1.039276E-02  1.039247E-02  1.039228E-02  1.039216E-02  1.039206E-02  1.039199E-02  1.039192E-02
 1.039595E-02  1.039409E-02  1.039324E-02  1.039276E-02  1.039247E-02  1.039228E-02  1.039216E-02  1.039206E-02  1.039199E-02  1.039192E-02
 1.039595E-02  1.039409E-02  1.039324E-02  1.039276E-02  1.039247E-02  1.039228E-02  1.039216E-02  1.039206E-02  1.039199E-02  1.039192E-02
 1.039595E-02  1.039409E-02  1.039324E-02  1.039276E-02  1.039247E-02  1.039228E-02  1.039216E-02  1.039206E-02  1.039199E-02  1.039192E-02
 1.039595E-02  1.039409E-02  1.039324E-02  1.039276E-02  1.039247E-02  1.039228E-02  1.039216E-02  1.039206E-02  1.039199E-02  1.039192E-02
 1.039595E-02  1.039409E-02  1.039324E-02  1.039276E-02  1.039247E-02  1.039228E-02  1.039216E-02  1.039206E-02  1.039199E-02  1.039192E-02
 1.039617E-02  1.039409E-02  1.039324E-02  1.039276E-02  1.039247E-02  1.039228E-02  1.039216E-02  1.039206E-02  1.039199E-02  1.039192E-02
 1.039617E-02  1.039409E-02  1.039324E-02  1.039276E-02  1.039247E-02  1.039228E-02  1.039216E-02  1.039206E-02  1.039199E-02  1.039192E-02
 1.039617E-02  1.039409E-02  1.039324E-02  1.039276E-02  1.039247E-02  1.039228E-02  1.039216E-02  1.039206E-02  1.039199E-02  1.039192E-02
 1.039618E-02  1.039409E-02  1.039324E-02  1.039276E-02  1.039247E-02  1.039228E-02  1.039216E-02  1.039206E-02  1.039199E-02  1.039192E-02
 1.039618E-02  1.039409E-02  1.039324E-02  1.039276E-02  1.039247E-02  1.039228E-02  1.039216E-02  1.039206E-02  1.039199E-02  1.039192E-02
 1.039618E-02  1.039409E-02  1.039324E-02  1.039276E-02  1.039247E-02  1.039228E-02  1.039216E-02  1.039206E-02  1.039199E-02  1.039192E-02
 1.039618E-02  1.039409E-02  1.039324E-02  1.039276E-02  1.039247E-02  1.039228E-02  1.039216E-02  1.039206E-02  1.039199E-02  1.039192E-02
 1.039618E-02  1.039409E-02  1.039324E-02  1.039276E-02  1.039247E-02  1.039228E-02  1.039216E-02  1.039206E-02  1.039199E-02  1.039192E-02
 1.039597E-02  1.039409E-02  1.039324E-02  1.039276E-02  1.039247E-02  1.039228E-02  1.039216E-02  1.039206E-02  1.039199E-02  1.039192E-02
 1.039597E-02  1.039409E-02  1.039324E-02  1.039276E-02  1.039247E-02  1.039228E-02  1.039216E-02  1.039207E-02  1.039199E-02  1.039192E-02
 1.039597E-02  1.039409E-02  1.039324E-02  1.039276E-02  1.039247E-02  1.039228E-02  1.039216E-02  1.039207E-02  1.039199E-02  1.039192E-02
 1.039597E-02  1.039409E-02  1.039324E-02  1.039276E-02  1.039247E-02  1.039228E-02  1.039216E-02  1.039207E-02  1.039199E-02  1.039192E-02
 1.039597E-02  1.039409E-02  1.039324E-02  1.039276E-02  1.039247E-02  1.039228E-02  1.039216E-02  1.039207E-02  1.039199E-02  1.039192E-02