# vtk DataFile Version 2.0
PFLOTRAN output
ASCII
DATASET UNSTRUCTURED_GRID
POINTS          462 float
 0.000000E+00  0.000000E+00  0.000000E+00
 1.000000E+01  0.000000E+00  0.000000E+00
 2.000000E+01  0.000000E+00  0.000000E+00
 3.000000E+01  0.000000E+00  0.000000E+00
 4.000000E+01  0.000000E+00  0.000000E+00
 5.000000E+01  0.000000E+00  0.000000E+00
 6.000000E+01  0.000000E+00  0.000000E+00
 7.000000E+01  0.000000E+00  0.000000E+00
 8.000000E+01  0.000000E+00  0.000000E+00
 9.000000E+01  0.000000E+00  0.000000E+00
 1.000000E+02  0.000000E+00  0.000000E+00
 0.000000E+00  1.000000E+00  0.000000E+00
 1.000000E+01  1.000000E+00  0.000000E+00
 2.000000E+01  1.000000E+00  0.000000E+00
 3.000000E+01  1.000000E+00  0.000000E+00
 4.000000E+01  1.000000E+00  0.000000E+00
 5.000000E+01  1.000000E+00  0.000000E+00
 6.000000E+01  1.000000E+00  0.000000E+00
 7.000000E+01  1.000000E+00  0.000000E+00
 8.000000E+01  1.000000E+00  0.000000E+00
 9.000000E+01  1.000000E+00  0.000000E+00
 1.000000E+02  1.000000E+00  0.000000E+00
 0.000000E+00  0.000000E+00  5.000000E+00
 1.000000E+01  0.000000E+00  5.000000E+00
 2.000000E+01  0.000000E+00  5.000000E+00
 3.000000E+01  0.000000E+00  5.000000E+00
 4.000000E+01  0.000000E+00  5.000000E+00
 5.000000E+01  0.000000E+00  5.000000E+00
 6.000000E+01  0.000000E+00  5.000000E+00
 7.000000E+01  0.000000E+00  5.000000E+00
 8.000000E+01  0.000000E+00  5.000000E+00
 9.000000E+01  0.000000E+00  5.000000E+00
 1.000000E+02  0.000000E+00  5.000000E+00
 0.000000E+00  1.000000E+00  5.000000E+00
 1.000000E+01  1.000000E+00  5.000000E+00
 2.000000E+01  1.000000E+00  5.000000E+00
 3.000000E+01  1.000000E+00  5.000000E+00
 4.000000E+01  1.000000E+00  5.000000E+00
 5.000000E+01  1.000000E+00  5.000000E+00
 6.000000E+01  1.000000E+00  5.000000E+00
 7.000000E+01  1.000000E+00  5.000000E+00
 8.000000E+01  1.000000E+00  5.000000E+00
 9.000000E+01  1.000000E+00  5.000000E+00
 1.000000E+02  1.000000E+00  5.000000E+00
 0.000000E+00  0.000000E+00  1.000000E+01
 1.000000E+01  0.000000E+00  1.000000E+01
 2.000000E+01  0.000000E+00  1.000000E+01
 3.000000E+01  0.000000E+00  1.000000E+01
 4.000000E+01  0.000000E+00  1.000000E+01
 5.000000E+01  0.000000E+00  1.000000E+01
 6.000000E+01  0.000000E+00  1.000000E+01
 7.000000E+01  0.000000E+00  1.000000E+01
 8.000000E+01  0.000000E+00  1.000000E+01
 9.000000E+01  0.000000E+00  1.000000E+01
 1.000000E+02  0.000000E+00  1.000000E+01
 0.000000E+00  1.000000E+00  1.000000E+01
 1.000000E+01  1.000000E+00  1.000000E+01
 2.000000E+01  1.000000E+00  1.000000E+01
 3.000000E+01  1.000000E+00  1.000000E+01
 4.000000E+01  1.000000E+00  1.000000E+01
 5.000000E+01  1.000000E+00  1.000000E+01
 6.000000E+01  1.000000E+00  1.000000E+01
 7.000000E+01  1.000000E+00  1.000000E+01
 8.000000E+01  1.000000E+00  1.000000E+01
 9.000000E+01  1.000000E+00  1.000000E+01
 1.000000E+02  1.000000E+00  1.000000E+01
 0.000000E+00  0.000000E+00  1.500000E+01
 1.000000E+01  0.000000E+00  1.500000E+01
 2.000000E+01  0.000000E+00  1.500000E+01
 3.000000E+01  0.000000E+00  1.500000E+01
 4.000000E+01  0.000000E+00  1.500000E+01
 5.000000E+01  0.000000E+00  1.500000E+01
 6.000000E+01  0.000000E+00  1.500000E+01
 7.000000E+01  0.000000E+00  1.500000E+01
 8.000000E+01  0.000000E+00  1.500000E+01
 9.000000E+01  0.000000E+00  1.500000E+01
 1.000000E+02  0.000000E+00  1.500000E+01
 0.000000E+00  1.000000E+00  1.500000E+01
 1.000000E+01  1.000000E+00  1.500000E+01
 2.000000E+01  1.000000E+00  1.500000E+01
 3.000000E+01  1.000000E+00  1.500000E+01
 4.000000E+01  1.000000E+00  1.500000E+01
 5.000000E+01  1.000000E+00  1.500000E+01
 6.000000E+01  1.000000E+00  1.500000E+01
 7.000000E+01  1.000000E+00  1.500000E+01
 8.000000E+01  1.000000E+00  1.500000E+01
 9.000000E+01  1.000000E+00  1.500000E+01
 1.000000E+02  1.000000E+00  1.500000E+01
 0.000000E+00  0.000000E+00  2.000000E+01
 1.000000E+01  0.000000E+00  2.000000E+01
 2.000000E+01  0.000000E+00  2.000000E+01
 3.000000E+01  0.000000E+00  2.000000E+01
 4.000000E+01  0.000000E+00  2.000000E+01
 5.000000E+01  0.000000E+00  2.000000E+01
 6.000000E+01  0.000000E+00  2.000000E+01
 7.000000E+01  0.000000E+00  2.000000E+01
 8.000000E+01  0.000000E+00  2.000000E+01
 9.000000E+01  0.000000E+00  2.000000E+01
 1.000000E+02  0.000000E+00  2.000000E+01
 0.000000E+00  1.000000E+00  2.000000E+01
 1.000000E+01  1.000000E+00  2.000000E+01
 2.000000E+01  1.000000E+00  2.000000E+01
 3.000000E+01  1.000000E+00  2.000000E+01
 4.000000E+01  1.000000E+00  2.000000E+01
 5.000000E+01  1.000000E+00  2.000000E+01
 6.000000E+01  1.000000E+00  2.000000E+01
 7.000000E+01  1.000000E+00  2.000000E+01
 8.000000E+01  1.000000E+00  2.000000E+01
 9.000000E+01  1.000000E+00  2.000000E+01
 1.000000E+02  1.000000E+00  2.000000E+01
 0.000000E+00  0.000000E+00  2.500000E+01
 1.000000E+01  0.000000E+00  2.500000E+01
 2.000000E+01  0.000000E+00  2.500000E+01
 3.000000E+01  0.000000E+00  2.500000E+01
 4.000000E+01  0.000000E+00  2.500000E+01
 5.000000E+01  0.000000E+00  2.500000E+01
 6.000000E+01  0.000000E+00  2.500000E+01
 7.000000E+01  0.000000E+00  2.500000E+01
 8.000000E+01  0.000000E+00  2.500000E+01
 9.000000E+01  0.000000E+00  2.500000E+01
 1.000000E+02  0.000000E+00  2.500000E+01
 0.000000E+00  1.000000E+00  2.500000E+01
 1.000000E+01  1.000000E+00  2.500000E+01
 2.000000E+01  1.000000E+00  2.500000E+01
 3.000000E+01  1.000000E+00  2.500000E+01
 4.000000E+01  1.000000E+00  2.500000E+01
 5.000000E+01  1.000000E+00  2.500000E+01
 6.000000E+01  1.000000E+00  2.500000E+01
 7.000000E+01  1.000000E+00  2.500000E+01
 8.000000E+01  1.000000E+00  2.500000E+01
 9.000000E+01  1.000000E+00  2.500000E+01
 1.000000E+02  1.000000E+00  2.500000E+01
 0.000000E+00  0.000000E+00  3.000000E+01
 1.000000E+01  0.000000E+00  3.000000E+01
 2.000000E+01  0.000000E+00  3.000000E+01
 3.000000E+01  0.000000E+00  3.000000E+01
 4.000000E+01  0.000000E+00  3.000000E+01
 5.000000E+01  0.000000E+00  3.000000E+01
 6.000000E+01  0.000000E+00  3.000000E+01
 7.000000E+01  0.000000E+00  3.000000E+01
 8.000000E+01  0.000000E+00  3.000000E+01
 9.000000E+01  0.000000E+00  3.000000E+01
 1.000000E+02  0.000000E+00  3.000000E+01
 0.000000E+00  1.000000E+00  3.000000E+01
 1.000000E+01  1.000000E+00  3.000000E+01
 2.000000E+01  1.000000E+00  3.000000E+01
 3.000000E+01  1.000000E+00  3.000000E+01
 4.000000E+01  1.000000E+00  3.000000E+01
 5.000000E+01  1.000000E+00  3.000000E+01
 6.000000E+01  1.000000E+00  3.000000E+01
 7.000000E+01  1.000000E+00  3.000000E+01
 8.000000E+01  1.000000E+00  3.000000E+01
 9.000000E+01  1.000000E+00  3.000000E+01
 1.000000E+02  1.000000E+00  3.000000E+01
 0.000000E+00  0.000000E+00  3.500000E+01
 1.000000E+01  0.000000E+00  3.500000E+01
 2.000000E+01  0.000000E+00  3.500000E+01
 3.000000E+01  0.000000E+00  3.500000E+01
 4.000000E+01  0.000000E+00  3.500000E+01
 5.000000E+01  0.000000E+00  3.500000E+01
 6.000000E+01  0.000000E+00  3.500000E+01
 7.000000E+01  0.000000E+00  3.500000E+01
 8.000000E+01  0.000000E+00  3.500000E+01
 9.000000E+01  0.000000E+00  3.500000E+01
 1.000000E+02  0.000000E+00  3.500000E+01
 0.000000E+00  1.000000E+00  3.500000E+01
 1.000000E+01  1.000000E+00  3.500000E+01
 2.000000E+01  1.000000E+00  3.500000E+01
 3.000000E+01  1.000000E+00  3.500000E+01
 4.000000E+01  1.000000E+00  3.500000E+01
 5.000000E+01  1.000000E+00  3.500000E+01
 6.000000E+01  1.000000E+00  3.500000E+01
 7.000000E+01  1.000000E+00  3.500000E+01
 8.000000E+01  1.000000E+00  3.500000E+01
 9.000000E+01  1.000000E+00  3.500000E+01
 1.000000E+02  1.000000E+00  3.500000E+01
 0.000000E+00  0.000000E+00  4.000000E+01
 1.000000E+01  0.000000E+00  4.000000E+01
 2.000000E+01  0.000000E+00  4.000000E+01
 3.000000E+01  0.000000E+00  4.000000E+01
 4.000000E+01  0.000000E+00  4.000000E+01
 5.000000E+01  0.000000E+00  4.000000E+01
 6.000000E+01  0.000000E+00  4.000000E+01
 7.000000E+01  0.000000E+00  4.000000E+01
 8.000000E+01  0.000000E+00  4.000000E+01
 9.000000E+01  0.000000E+00  4.000000E+01
 1.000000E+02  0.000000E+00  4.000000E+01
 0.000000E+00  1.000000E+00  4.000000E+01
 1.000000E+01  1.000000E+00  4.000000E+01
 2.000000E+01  1.000000E+00  4.000000E+01
 3.000000E+01  1.000000E+00  4.000000E+01
 4.000000E+01  1.000000E+00  4.000000E+01
 5.000000E+01  1.000000E+00  4.000000E+01
 6.000000E+01  1.000000E+00  4.000000E+01
 7.000000E+01  1.000000E+00  4.000000E+01
 8.000000E+01  1.000000E+00  4.000000E+01
 9.000000E+01  1.000000E+00  4.000000E+01
 1.000000E+02  1.000000E+00  4.000000E+01
 0.000000E+00  0.000000E+00  4.500000E+01
 1.000000E+01  0.000000E+00  4.500000E+01
 2.000000E+01  0.000000E+00  4.500000E+01
 3.000000E+01  0.000000E+00  4.500000E+01
 4.000000E+01  0.000000E+00  4.500000E+01
 5.000000E+01  0.000000E+00  4.500000E+01
 6.000000E+01  0.000000E+00  4.500000E+01
 7.000000E+01  0.000000E+00  4.500000E+01
 8.000000E+01  0.000000E+00  4.500000E+01
 9.000000E+01  0.000000E+00  4.500000E+01
 1.000000E+02  0.000000E+00  4.500000E+01
 0.000000E+00  1.000000E+00  4.500000E+01
 1.000000E+01  1.000000E+00  4.500000E+01
 2.000000E+01  1.000000E+00  4.500000E+01
 3.000000E+01  1.000000E+00  4.500000E+01
 4.000000E+01  1.000000E+00  4.500000E+01
 5.000000E+01  1.000000E+00  4.500000E+01
 6.000000E+01  1.000000E+00  4.500000E+01
 7.000000E+01  1.000000E+00  4.500000E+01
 8.000000E+01  1.000000E+00  4.500000E+01
 9.000000E+01  1.000000E+00  4.500000E+01
 1.000000E+02  1.000000E+00  4.500000E+01
 0.000000E+00  0.000000E+00  5.000000E+01
 1.000000E+01  0.000000E+00  5.000000E+01
 2.000000E+01  0.000000E+00  5.000000E+01
 3.000000E+01  0.000000E+00  5.000000E+01
 4.000000E+01  0.000000E+00  5.000000E+01
 5.000000E+01  0.000000E+00  5.000000E+01
 6.000000E+01  0.000000E+00  5.000000E+01
 7.000000E+01  0.000000E+00  5.000000E+01
 8.000000E+01  0.000000E+00  5.000000E+01
 9.000000E+01  0.000000E+00  5.000000E+01
 1.000000E+02  0.000000E+00  5.000000E+01
 0.000000E+00  1.000000E+00  5.000000E+01
 1.000000E+01  1.000000E+00  5.000000E+01
 2.000000E+01  1.000000E+00  5.000000E+01
 3.000000E+01  1.000000E+00  5.000000E+01
[...]
CELL_DATA      200
SCALARS Porosity             float 1
LOOKUP_TABLE default
 4.377028E-01  4.377089E-01  4.377099E-01  4.377100E-01  4.377100E-01  4.377099E-01  4.377099E-01  4.377099E-01  4.377099E-01  4.377099E-01
 4.376443E-01  4.376995E-01  4.377086E-01  4.377098E-01  4.377099E-01  4.377099E-01  4.377099E-01  4.377099E-01  4.377099E-01  4.377098E-01
 4.373980E-01  4.376522E-01  4.377018E-01  4.377090E-01  4.377099E-01  4.377099E-01  4.377099E-01  4.377099E-01  4.377099E-01  4.377098E-01
 4.367354E-01  4.374928E-01  4.376752E-01  4.377057E-01  4.377095E-01  4.377099E-01  4.377099E-01  4.377099E-01  4.377099E-01  4.377098E-01
 4.356746E-01  4.371091E-01  4.375998E-01  4.376953E-01  4.377084E-01  4.377098E-01  4.377099E-01  4.377099E-01  4.377099E-01  4.377098E-01
 4.357458E-01  4.364869E-01  4.374418E-01  4.376710E-01  4.377057E-01  4.377096E-01  4.377099E-01  4.377099E-01  4.377099E-01  4.377098E-01
 4.400355E-01  4.361208E-01  4.372232E-01  4.376322E-01  4.377010E-01  4.377091E-01  4.377098E-01  4.377099E-01  4.377099E-01  4.377098E-01
 4.400371E-01  4.360132E-01  4.371127E-01  4.376062E-01  4.376973E-01  4.377087E-01  4.377098E-01  4.377099E-01  4.377098E-01  4.377097E-01
 4.400382E-01  4.359688E-01  4.370487E-01  4.375885E-01  4.376946E-01  4.377085E-01  4.377098E-01  4.377099E-01  4.377098E-01  4.377097E-01
 4.400385E-01  4.359509E-01  4.370189E-01  4.375794E-01  4.376931E-01  4.377083E-01  4.377098E-01  4.377098E-01  4.377098E-01  4.377097E-01
 4.400380E-01  4.359507E-01  4.370189E-01  4.375794E-01  4.376931E-01  4.377083E-01  4.377098E-01  4.377099E-01  4.377098E-01  4.377097E-01
 4.400368E-01  4.359684E-01  4.370488E-01  4.375885E-01  4.376946E-01  4.377085E-01  4.377098E-01  4.377099E-01  4.377098E-01  4.377097E-01
 4.400348E-01  4.360127E-01  4.371128E-01  4.376063E-01  4.376973E-01  4.377088E-01  4.377098E-01  4.377099E-01  4.377098E-01  4.377097E-01
 4.400325E-01  4.361203E-01  4.372234E-01  4.376323E-01  4.377010E-01  4.377091E-01  4.377098E-01  4.377099E-01  4.377098E-01  4.377097E-01
 4.357442E-01  4.364872E-01  4.374421E-01  4.376711E-01  4.377058E-01  4.377096E-01  4.377099E-01  4.377099E-01  4.377099E-01  4.377098E-01
 4.356747E-01  4.371097E-01  4.376001E-01  4.376955E-01  4.377085E-01  4.377098E-01  4.377099E-01  4.377099E-01  4.377099E-01  4.377098E-01
 4.367362E-01  4.374934E-01  4.376756E-01  4.377059E-01  4.377096E-01  4.377099E-01  4.377099E-01  4.377099E-01  4.377099E-01  4.377098E-01
 4.373987E-01  4.376526E-01  4.377020E-01  4.377091E-01  4.377099E-01  4.377099E-01  4.377099E-01  4.377099E-01  4.377099E-01  4.377098E-01
 4.376448E-01  4.376997E-01  4.377087E-01  4.377099E-01  4.377099E-01  4.377099E-01  4.377099E-01  4.377099E-01  4.377099E-01  4.377098E-01
 4.377029E-01  4.377090E-01  4.377099E-01  4.377100E-01  4.377099E-01  4.377099E-01  4.377099E-01  4.377099E-01  4.377099E-01  4.377098E-01


SCALARS Permeability         float 1
LOOKUP_TABLE default
 8.829440E-13  8.829752E-13  8.829798E-13  8.829804E-13  8.829804E-13  8.829802E-13  8.829801E-13  8.829801E-13  8.829800E-13  8.829798E-13
 8.826486E-13  8.829273E-13  8.829736E-13  8.829797E-13  8.829802E-13  8.829802E-13  8.829801E-13  8.829800E-13  8.829800E-13  8.829797E-13
 8.814043E-13  8.826883E-13  8.829389E-13  8.829757E-13  8.829799E-13  8.829801E-13  8.829800E-13  8.829799E-13  8.829799E-13  8.829796E-13
 8.780624E-13  8.818830E-13  8.828048E-13  8.829589E-13  8.829782E-13  8.829800E-13  8.829800E-13  8.829799E-13  8.829799E-13  8.829795E-13
 8.727278E-13  8.799463E-13  8.824235E-13  8.829062E-13  8.829726E-13  8.829795E-13  8.829800E-13  8.829799E-13  8.829798E-13  8.829795E-13
 8.730854E-13  8.768113E-13  8.816256E-13  8.827832E-13  8.829587E-13  8.829783E-13  8.829799E-13  8.829799E-13  8.829798E-13  8.829794E-13
 8.947821E-13  8.749694E-13  8.805219E-13  8.825872E-13  8.829348E-13  8.829760E-13  8.829797E-13  8.829798E-13  8.829798E-13  8.829793E-13
 8.947903E-13  8.744288E-13  8.799646E-13  8.824558E-13  8.829163E-13  8.829742E-13  8.829795E-13  8.829798E-13  8.829798E-13  8.829793E-13
 8.947959E-13  8.742054E-13  8.796419E-13  8.823664E-13  8.829025E-13  8.829727E-13  8.829794E-13  8.829798E-13  8.829797E-13  8.829792E-13
 8.947974E-13  8.741154E-13  8.794914E-13  8.823206E-13  8.828951E-13  8.829719E-13  8.829793E-13  8.829798E-13  8.829797E-13  8.829792E-13
 8.947950E-13  8.741146E-13  8.794915E-13  8.823208E-13  8.828951E-13  8.829719E-13  8.829794E-13  8.829798E-13  8.829797E-13  8.829792E-13
 8.947888E-13  8.742035E-13  8.796421E-13  8.823668E-13  8.829027E-13  8.829728E-13  8.829794E-13  8.829798E-13  8.829797E-13  8.829792E-13
 8.947788E-13  8.744260E-13  8.799651E-13  8.824564E-13  8.829166E-13  8.829743E-13  8.829796E-13  8.829798E-13  8.829797E-13  8.829792E-13
 8.947671E-13  8.749668E-13  8.805229E-13  8.825880E-13  8.829352E-13  8.829762E-13  8.829797E-13  8.829798E-13  8.829798E-13  8.829792E-13
 8.730774E-13  8.768124E-13  8.816272E-13  8.827841E-13  8.829591E-13  8.829784E-13  8.829799E-13  8.829798E-13  8.829798E-13  8.829793E-13
 8.727287E-13  8.799492E-13  8.824254E-13  8.829071E-13  8.829730E-13  8.829796E-13  8.829800E-13  8.829799E-13  8.829798E-13  8.829794E-13
 8.780665E-13  8.818859E-13  8.828064E-13  8.829597E-13  8.829785E-13  8.829801E-13  8.829800E-13  8.829799E-13  8.829798E-13  8.829794E-13
 8.814079E-13  8.826905E-13  8.829401E-13  8.829762E-13  8.829800E-13  8.829801E-13  8.829800E-13  8.829798E-13  8.829798E-13  8.829795E-13
 8.826508E-13  8.829286E-13  8.829742E-13  8.829799E-13  8.829803E-13  8.829801E-13  8.829799E-13  8.829799E-13  8.829798E-13  8.829796E-13
 8.829446E-13  8.829755E-13  8.829799E-13  8.829803E-13  8.829802E-13  8.829801E-13  8.829800E-13  8.829799E-13  8.829799E-13  8.829797E-13


SCALARS Liquid_Pressure      float 1
LOOKUP_TABLE default
 8.009772E+06  7.964844E+06  7.898026E+06  7.825684E+06  7.756030E+06  7.692180E+06  7.634775E+06  7.583434E+06  7.537449E+06  7.496095E+06
 7.987078E+06  7.934468E+06  7.861208E+06  7.784930E+06  7.713136E+06  7.648176E+06  7.590203E+06  7.538569E+06  7.492429E+06  7.450982E+06
 7.990730E+06  7.919751E+06  7.832625E+06  7.748345E+06  7.672335E+06  7.605222E+06  7.546156E+06  7.493963E+06  7.447525E+06  7.405900E+06
 8.030097E+06  7.922285E+06  7.811908E+06  7.715422E+06  7.633288E+06  7.563126E+06  7.502534E+06  7.449563E+06  7.402713E+06  7.360845E+06
 8.124086E+06  7.943800E+06  7.798087E+06  7.685296E+06  7.595482E+06  7.521613E+06  7.459193E+06  7.405300E+06  7.357963E+06  7.315807E+06
 8.309023E+06  7.984267E+06  7.789039E+06  7.656676E+06  7.558242E+06  7.480338E+06  7.415960E+06  7.361087E+06  7.313235E+06  7.270776E+06
 8.652074E+06  8.036263E+06  7.780839E+06  7.627847E+06  7.520774E+06  7.438919E+06  7.372648E+06  7.316833E+06  7.268489E+06  7.225741E+06
 8.824048E+06  8.070121E+06  7.767721E+06  7.596882E+06  7.482260E+06  7.396976E+06  7.329072E+06  7.272450E+06  7.223686E+06  7.180691E+06
 8.897734E+06  8.078189E+06  7.745681E+06  7.562130E+06  7.441978E+06  7.354173E+06  7.285073E+06  7.227862E+06  7.178791E+06  7.135616E+06
 8.905448E+06  8.059457E+06  7.712537E+06  7.522459E+06  7.399401E+06  7.310266E+06  7.240534E+06  7.183013E+06  7.133781E+06  7.090512E+06
 8.860230E+06  8.014281E+06  7.667377E+06  7.477308E+06  7.354255E+06  7.265123E+06  7.195394E+06  7.137874E+06  7.088642E+06  7.045372E+06
 8.762083E+06  7.942662E+06  7.610202E+06  7.426677E+06  7.306540E+06  7.218745E+06  7.149651E+06  7.092444E+06  7.043374E+06  7.000199E+06
 8.597989E+06  7.844253E+06  7.541927E+06  7.371128E+06  7.256531E+06  7.171262E+06  7.103369E+06  7.046753E+06  6.997991E+06  6.954994E+06
 8.335662E+06  7.720072E+06  7.464738E+06  7.311796E+06  7.204755E+06  7.122922E+06  7.056664E+06  7.000857E+06  6.952516E+06  6.909766E+06
 7.902372E+06  7.577776E+06  7.382638E+06  7.250332E+06  7.151935E+06  7.074058E+06  7.009697E+06  6.954833E+06  6.906985E+06  6.864522E+06
 7.627200E+06  7.447025E+06  7.301394E+06  7.188662E+06  7.098890E+06  7.025051E+06  6.962651E+06  6.908769E+06  6.861435E+06  6.819275E+06
 7.442967E+06  7.335234E+06  7.224929E+06  7.128503E+06  7.046413E+06  6.976284E+06  6.915714E+06  6.862756E+06  6.815910E+06  6.774036E+06
 7.313347E+06  7.242425E+06  7.155364E+06  7.071143E+06  6.995179E+06  6.928101E+06  6.869061E+06  6.816881E+06  6.770447E+06  6.728814E+06
 7.219428E+06  7.166865E+06  7.093666E+06  7.017445E+06  6.945700E+06  6.880779E+06  6.822833E+06  6.771215E+06  6.725078E+06  6.683620E+06
 7.151843E+06  7.106958E+06  7.040200E+06  6.967917E+06  6.898315E+06  6.834508E+06  6.777133E+06  6.725809E+06  6.679828E+06  6.638460E+06


SCALARS Temperature          float 1
LOOKUP_TABLE default
 1.500985E+02  1.501065E+02  1.501170E+02  1.501280E+02  1.501379E+02  1.501452E+02  1.501475E+02  1.501421E+02  1.501281E+02  1.501074E+02
 1.501019E+02  1.501117E+02  1.501237E+02  1.501356E+02  1.501465E+02  1.501556E+02  1.501607E+02  1.501586E+02  1.501462E+02  1.501239E+02
 1.501016E+02  1.501145E+02  1.501291E+02  1.501426E+02  1.501544E+02  1.501643E+02  1.501711E+02  1.501714E+02  1.501611E+02  1.501389E+02
 1.500967E+02  1.501150E+02  1.501334E+02  1.501492E+02  1.501622E+02  1.501729E+02  1.501808E+02  1.501829E+02  1.501746E+02  1.501529E+02
 1.500843E+02  1.501133E+02  1.501373E+02  1.501558E+02  1.501703E+02  1.501818E+02  1.501905E+02  1.501940E+02  1.501874E+02  1.501665E+02
 1.500590E+02  1.501097E+02  1.501414E+02  1.501632E+02  1.501792E+02  1.501915E+02  1.502008E+02  1.502053E+02  1.502000E+02  1.501798E+02
 1.500095E+02  1.501064E+02  1.501473E+02  1.501721E+02  1.501893E+02  1.502021E+02  1.502118E+02  1.502170E+02  1.502126E+02  1.501928E+02
 1.500031E+02  1.501138E+02  1.501579E+02  1.501834E+02  1.502007E+02  1.502134E+02  1.502231E+02  1.502286E+02  1.502248E+02  1.502052E+02
 1.500010E+02  1.501191E+02  1.501659E+02  1.501922E+02  1.502097E+02  1.502225E+02  1.502323E+02  1.502379E+02  1.502346E+02  1.502150E+02
 1.500009E+02  1.501227E+02  1.501715E+02  1.501986E+02  1.502165E+02  1.502295E+02  1.502393E+02  1.502451E+02  1.502418E+02  1.502221E+02
 1.500009E+02  1.501227E+02  1.501715E+02  1.501986E+02  1.502165E+02  1.502295E+02  1.502394E+02  1.502452E+02  1.502419E+02  1.502222E+02
 1.500023E+02  1.501223E+02  1.501706E+02  1.501979E+02  1.502161E+02  1.502293E+02  1.502393E+02  1.502451E+02  1.502415E+02  1.502213E+02
 1.500060E+02  1.501207E+02  1.501678E+02  1.501953E+02  1.502138E+02  1.502273E+02  1.502374E+02  1.502430E+02  1.502388E+02  1.502177E+02
 1.500147E+02  1.501179E+02  1.501633E+02  1.501909E+02  1.502097E+02  1.502235E+02  1.502337E+02  1.502390E+02  1.502338E+02  1.502117E+02
 1.500774E+02  1.501322E+02  1.501671E+02  1.501912E+02  1.502086E+02  1.502218E+02  1.502316E+02  1.502360E+02  1.502292E+02  1.502054E+02
 1.501159E+02  1.501479E+02  1.501743E+02  1.501945E+02  1.502101E+02  1.502223E+02  1.502313E+02  1.502343E+02  1.502252E+02  1.501990E+02
 1.501414E+02  1.501622E+02  1.501824E+02  1.501993E+02  1.502131E+02  1.502243E+02  1.502322E+02  1.502332E+02  1.502210E+02  1.501918E+02
 1.501596E+02  1.501744E+02  1.501902E+02  1.502046E+02  1.502170E+02  1.502271E+02  1.502335E+02  1.502314E+02  1.502150E+02  1.501825E+02
 1.501730E+02  1.501843E+02  1.501972E+02  1.502098E+02  1.502210E+02  1.502298E+02  1.502335E+02  1.502268E+02  1.502051E+02  1.501693E+02
 1.501828E+02  1.501918E+02  1.502028E+02  1.502140E+02  1.502236E+02  1.502295E+02  1.502274E+02  1.502131E+02  1.501853E+02  1.501482E+02


SCALARS pH                   float 1
LOOKUP_TABLE default
 6.145670E+00  6.145699E+00  6.145731E+00  6.145765E+00  6.145800E+00  6.145832E+00  6.145859E+00  6.145873E+00  6.145864E+00  6.145795E+00
 6.145647E+00  6.145678E+00  6.145709E+00  6.145742E+00  6.145777E+00  6.145812E+00  6.145843E+00  6.145865E+00  6.145867E+00  6.145814E+00
 6.145607E+00  6.145665E+00  6.145699E+00  6.145733E+00  6.145767E+00  6.145803E+00  6.145836E+00  6.145862E+00  6.145871E+00  6.145824E+00
 6.145236E+00  6.145639E+00  6.145692E+00  6.145728E+00  6.145763E+00  6.145798E+00  6.145833E+00  6.145862E+00  6.145875E+00  6.145831E+00
 6.141037E+00  6.145466E+00  6.145680E+00  6.145725E+00  6.145762E+00  6.145798E+00  6.145834E+00  6.145865E+00  6.145881E+00  6.145838E+00
 6.107942E+00  6.143944E+00  6.145631E+00  6.145725E+00  6.145765E+00  6.145802E+00  6.145839E+00  6.145871E+00  6.145889E+00  6.145846E+00
 5.946965E+00  6.135137E+00  6.145359E+00  6.145726E+00  6.145773E+00  6.145811E+00  6.145848E+00  6.145881E+00  6.145901E+00  6.145857E+00
 5.946941E+00  6.132934E+00  6.145245E+00  6.145738E+00  6.145789E+00  6.145826E+00  6.145862E+00  6.145896E+00  6.145917E+00  6.145870E+00
 5.946937E+00  6.131893E+00  6.145179E+00  6.145750E+00  6.145803E+00  6.145839E+00  6.145875E+00  6.145909E+00  6.145930E+00  6.145881E+00
 5.946938E+00  6.131471E+00  6.145149E+00  6.145757E+00  6.145812E+00  6.145848E+00  6.145884E+00  6.145918E+00  6.145939E+00  6.145889E+00
 5.946935E+00  6.131467E+00  6.145145E+00  6.145755E+00  6.145810E+00  6.145847E+00  6.145883E+00  6.145917E+00  6.145939E+00  6.145888E+00
 5.946935E+00  6.131885E+00  6.145174E+00  6.145748E+00  6.145803E+00  6.145841E+00  6.145878E+00  6.145912E+00  6.145933E+00  6.145882E+00
 5.946942E+00  6.132924E+00  6.145240E+00  6.145739E+00  6.145793E+00  6.145832E+00  6.145870E+00  6.145903E+00  6.145924E+00  6.145872E+00
 5.946973E+00  6.135127E+00  6.145357E+00  6.145730E+00  6.145782E+00  6.145822E+00  6.145860E+00  6.145894E+00  6.145913E+00  6.145860E+00
 6.107955E+00  6.143945E+00  6.145638E+00  6.145738E+00  6.145781E+00  6.145821E+00  6.145859E+00  6.145891E+00  6.145907E+00  6.145853E+00
 6.141051E+00  6.145480E+00  6.145700E+00  6.145749E+00  6.145788E+00  6.145827E+00  6.145863E+00  6.145893E+00  6.145905E+00  6.145848E+00
 6.145259E+00  6.145667E+00  6.145725E+00  6.145764E+00  6.145801E+00  6.145838E+00  6.145873E+00  6.145900E+00  6.145906E+00  6.145843E+00
 6.145644E+00  6.145707E+00  6.145745E+00  6.145781E+00  6.145817E+00  6.145853E+00  6.145886E+00  6.145908E+00  6.145907E+00  6.145836E+00
 6.145697E+00  6.145732E+00  6.145767E+00  6.145802E+00  6.145837E+00  6.145872E+00  6.145901E+00  6.145914E+00  6.145902E+00  6.145822E+00
 6.145730E+00  6.145762E+00  6.145796E+00  6.145831E+00  6.145865E+00  6.145895E+00  6.145914E+00  6.145913E+00  6.145884E+00  6.145787E+00


SCALARS Total_H+             float 1
LOOKUP_TABLE default
-3.046777E-03 -3.045560E-03 -3.044091E-03 -3.042417E-03 -3.040588E-03 -3.038661E-03 -3.036725E-03 -3.034896E-03 -3.033280E-03 -3.032134E-03
-3.048009E-03 -3.046876E-03 -3.045490E-03 -3.043874E-03 -3.042063E-03 -3.040095E-03 -3.038052E-03 -3.036072E-03 -3.034301E-03 -3.033015E-03
-3.048756E-03 -3.047566E-03 -3.046189E-03 -3.044616E-03 -3.042840E-03 -3.040880E-03 -3.038797E-03 -3.036728E-03 -3.034851E-03 -3.033497E-03
-3.048038E-03 -3.048120E-03 -3.046652E-03 -3.045077E-03 -3.043328E-03 -3.041385E-03 -3.039289E-03 -3.037164E-03 -3.035209E-03 -3.033808E-03
-3.025964E-03 -3.048044E-03 -3.046995E-03 -3.045363E-03 -3.043619E-03 -3.041694E-03 -3.039597E-03 -3.037439E-03 -3.035424E-03 -3.033994E-03
-2.842433E-03 -3.040477E-03 -3.047085E-03 -3.045499E-03 -3.043741E-03 -3.041829E-03 -3.039738E-03 -3.037561E-03 -3.035505E-03 -3.034061E-03
-2.083030E-03 -2.990935E-03 -3.045769E-03 -3.045444E-03 -3.043688E-03 -3.041792E-03 -3.039715E-03 -3.037532E-03 -3.035451E-03 -3.034011E-03
-2.082921E-03 -2.978191E-03 -3.044823E-03 -3.045173E-03 -3.043463E-03 -3.041604E-03 -3.039553E-03 -3.037376E-03 -3.035287E-03 -3.033861E-03
-2.082835E-03 -2.972054E-03 -3.044162E-03 -3.044927E-03 -3.043246E-03 -3.041413E-03 -3.039380E-03 -3.037210E-03 -3.035116E-03 -3.033707E-03
-2.082809E-03 -2.969526E-03 -3.043795E-03 -3.044740E-03 -3.043066E-03 -3.041242E-03 -3.039219E-03 -3.037052E-03 -3.034959E-03 -3.033569E-03
-2.082853E-03 -2.969561E-03 -3.043820E-03 -3.044758E-03 -3.043078E-03 -3.041250E-03 -3.039223E-03 -3.037055E-03 -3.034960E-03 -3.033569E-03
-2.082952E-03 -2.972061E-03 -3.044084E-03 -3.044796E-03 -3.043082E-03 -3.041228E-03 -3.039185E-03 -3.037011E-03 -3.034925E-03 -3.033549E-03
-2.083105E-03 -2.978150E-03 -3.044620E-03 -3.044875E-03 -3.043108E-03 -3.041216E-03 -3.039147E-03 -3.036966E-03 -3.034894E-03 -3.033540E-03
-2.083266E-03 -2.990796E-03 -3.045401E-03 -3.044949E-03 -3.043120E-03 -3.041181E-03 -3.039082E-03 -3.036897E-03 -3.034850E-03 -3.033522E-03
-2.842274E-03 -3.039972E-03 -3.046406E-03 -3.044713E-03 -3.042890E-03 -3.040939E-03 -3.038831E-03 -3.036662E-03 -3.034663E-03 -3.033388E-03
-3.025259E-03 -3.047124E-03 -3.045946E-03 -3.044230E-03 -3.042436E-03 -3.040482E-03 -3.038377E-03 -3.036244E-03 -3.034323E-03 -3.033131E-03
-3.046838E-03 -3.046772E-03 -3.045207E-03 -3.043570E-03 -3.041785E-03 -3.039825E-03 -3.037733E-03 -3.035662E-03 -3.033854E-03 -3.032777E-03
-3.047090E-03 -3.045790E-03 -3.044341E-03 -3.042725E-03 -3.040927E-03 -3.038962E-03 -3.036903E-03 -3.034932E-03 -3.033283E-03 -3.032353E-03
-3.045896E-03 -3.044680E-03 -3.043246E-03 -3.041605E-03 -3.039785E-03 -3.037830E-03 -3.035853E-03 -3.034052E-03 -3.032622E-03 -3.031868E-03
-3.044252E-03 -3.042986E-03 -3.041494E-03 -3.039816E-03 -3.038004E-03 -3.036142E-03 -3.034375E-03 -3.032876E-03 -3.031751E-03 -3.031212E-03


SCALARS Total_SiO2(aq)       float 1
LOOKUP_TABLE default
 1.040379E-02  1.040169E-02  1.040216E-02  1.040304E-02  1.040390E-02  1.040455E-02  1.040477E-02  1.040433E-02  1.040314E-02  1.040143E-02
 1.043032E-02  1.040640E-02  1.040329E-02  1.040376E-02  1.040464E-02  1.040543E-02  1.040589E-02  1.040574E-02  1.040470E-02  1.040286E-02
 1.054080E-02  1.042789E-02  1.040683E-02  1.040470E-02  1.040535E-02  1.040618E-02  1.040678E-02  1.040683E-02  1.040598E-02  1.040416E-02
 1.084454E-02  1.049945E-02  1.041913E-02  1.040676E-02  1.040616E-02  1.040692E-02  1.040761E-02  1.040782E-02  1.040713E-02  1.040537E-02
 1.143274E-02  1.067437E-02  1.045331E-02  1.041202E-02  1.040735E-02  1.040773E-02  1.040844E-02  1.040877E-02  1.040823E-02  1.040654E-02
 1.225899E-02  1.099351E-02  1.052526E-02  1.042356E-02  1.040935E-02  1.040866E-02  1.040933E-02  1.040973E-02  1.040931E-02  1.040769E-02
 1.309807E-02  1.140985E-02  1.063084E-02  1.044180E-02  1.041233E-02  1.040977E-02  1.041029E-02  1.041073E-02  1.041039E-02  1.040882E-02
 1.309694E-02  1.151902E-02  1.068444E-02  1.045444E-02  1.041494E-02  1.041091E-02  1.041127E-02  1.041173E-02  1.041144E-02  1.040989E-02
 1.309627E-02  1.156788E-02  1.071581E-02  1.046315E-02  1.041693E-02  1.041181E-02  1.041206E-02  1.041253E-02  1.041227E-02  1.041074E-02
 1.309611E-02  1.158774E-02  1.073062E-02  1.046777E-02  1.041817E-02  1.041248E-02  1.041267E-02  1.041315E-02  1.041290E-02  1.041135E-02
 1.309636E-02  1.158781E-02  1.073061E-02  1.046776E-02  1.041817E-02  1.041248E-02  1.041268E-02  1.041315E-02  1.041291E-02  1.041136E-02
 1.309706E-02  1.156830E-02  1.071619E-02  1.046360E-02  1.041746E-02  1.041239E-02  1.041266E-02  1.041314E-02  1.041287E-02  1.041128E-02
 1.309825E-02  1.151980E-02  1.068523E-02  1.045540E-02  1.041604E-02  1.041208E-02  1.041249E-02  1.041296E-02  1.041264E-02  1.041098E-02
 1.309986E-02  1.141099E-02  1.063211E-02  1.044333E-02  1.041404E-02  1.041159E-02  1.041216E-02  1.041262E-02  1.041221E-02  1.041045E-02
 1.226087E-02  1.099526E-02  1.052729E-02  1.042586E-02  1.041183E-02  1.041125E-02  1.041197E-02  1.041236E-02  1.041182E-02  1.040991E-02
 1.143516E-02  1.067700E-02  1.045627E-02  1.041523E-02  1.041072E-02  1.041118E-02  1.041194E-02  1.041222E-02  1.041149E-02  1.040937E-02
 1.084793E-02  1.050316E-02  1.042314E-02  1.041097E-02  1.041049E-02  1.041132E-02  1.041202E-02  1.041213E-02  1.041113E-02  1.040874E-02
 1.054537E-02  1.043276E-02  1.041194E-02  1.040996E-02  1.041069E-02  1.041156E-02  1.041214E-02  1.041199E-02  1.041063E-02  1.040794E-02
 1.043616E-02  1.041247E-02  1.040952E-02  1.041008E-02  1.041102E-02  1.041180E-02  1.041215E-02  1.041161E-02  1.040978E-02  1.040681E-02