# vtk DataFile Version 2.0
PFLOTRAN output
ASCII
DATASET UNSTRUCTURED_GRID
POINTS          462 float
 0.000000E+00  0.000000E+00  0.000000E+00
 2.000000E+03  0.000000E+00  0.000000E+00
 4.000000E+03  0.000000E+00  0.000000E+00
 6.000000E+03  0.000000E+00  0.000000E+00
 8.000000E+03  0.000000E+00  0.000000E+00
 1.000000E+04  0.000000E+00  0.000000E+00
 1.200000E+04  0.000000E+00  0.000000E+00
 1.400000E+04  0.000000E+00  0.000000E+00
 1.600000E+04  0.000000E+00  0.000000E+00
 1.800000E+04  0.000000E+00  0.000000E+00
 2.000000E+04  0.000000E+00  0.000000E+00
 0.000000E+00  1.000000E+00  0.000000E+00
 2.000000E+03  1.000000E+00  0.000000E+00
 4.000000E+03  1.000000E+00  0.000000E+00
 6.000000E+03  1.000000E+00  0.000000E+00
 8.000000E+03  1.000000E+00  0.000000E+00
 1.000000E+04  1.000000E+00  0.000000E+00
 1.200000E+04  1.000000E+00  0.000000E+00
 1.400000E+04  1.000000E+00  0.000000E+00
 1.600000E+04  1.000000E+00  0.000000E+00
 1.800000E+04  1.000000E+00  0.000000E+00
 2.000000E+04  1.000000E+00  0.000000E+00
 0.000000E+00  0.000000E+00  5.000000E+00
 2.000000E+03  0.000000E+00  5.000000E+00
 4.000000E+03  0.000000E+00  5.000000E+00
 6.000000E+03  0.000000E+00  5.000000E+00
 8.000000E+03  0.000000E+00  5.000000E+00
 1.000000E+04  0.000000E+00  5.000000E+00
 1.200000E+04  0.000000E+00  5.000000E+00
 1.400000E+04  0.000000E+00  5.000000E+00
 1.600000E+04  0.000000E+00  5.000000E+00
 1.800000E+04  0.000000E+00  5.000000E+00
 2.000000E+04  0.000000E+00  5.000000E+00
 0.000000E+00  1.000000E+00  5.000000E+00
 2.000000E+03  1.000000E+00  5.000000E+00
 4.000000E+03  1.000000E+00  5.000000E+00
 6.000000E+03  1.000000E+00  5.000000E+00
 8.000000E+03  1.000000E+00  5.000000E+00
 1.000000E+04  1.000000E+00  5.000000E+00
 1.200000E+04  1.000000E+00  5.000000E+00
 1.400000E+04  1.000000E+00  5.000000E+00
 1.600000E+04  1.000000E+00  5.000000E+00
 1.800000E+04  1.000000E+00  5.000000E+00
 2.000000E+04  1.000000E+00  5.000000E+00
 0.000000E+00  0.000000E+00  1.000000E+01
 2.000000E+03  0.000000E+00  1.000000E+01
 4.000000E+03  0.000000E+00  1.000000E+01
 6.000000E+03  0.000000E+00  1.000000E+01
 8.000000E+03  0.000000E+00  1.000000E+01
 1.000000E+04  0.000000E+00  1.000000E+01
 1.200000E+04  0.000000E+00  1.000000E+01
 1.400000E+04  0.000000E+00  1.000000E+01
 1.600000E+04  0.000000E+00  1.000000E+01
 1.800000E+04  0.000000E+00  1.000000E+01
 2.000000E+04  0.000000E+00  1.000000E+01
 0.000000E+00  1.000000E+00  1.000000E+01
 2.000000E+03  1.000000E+00  1.000000E+01
 4.000000E+03  1.000000E+00  1.000000E+01
 6.000000E+03  1.000000E+00  1.000000E+01
 8.000000E+03  1.000000E+00  1.000000E+01
 1.000000E+04  1.000000E+00  1.000000E+01
 1.200000E+04  1.000000E+00  1.000000E+01
 1.400000E+04  1.000000E+00  1.000000E+01
 1.600000E+04  1.000000E+00  1.000000E+01
 1.800000E+04  1.000000E+00  1.000000E+01
 2.000000E+04  1.000000E+00  1.000000E+01
 0.000000E+00  0.000000E+00  1.500000E+01
 2.000000E+03  0.000000E+00  1.500000E+01
 4.000000E+03  0.000000E+00  1.500000E+01
 6.000000E+03  0.000000E+00  1.500000E+01
 8.000000E+03  0.000000E+00  1.500000E+01
 1.000000E+04  0.000000E+00  1.500000E+01
 1.200000E+04  0.000000E+00  1.500000E+01
 1.400000E+04  0.000000E+00  1.500000E+01
 1.600000E+04  0.000000E+00  1.500000E+01
 1.800000E+04  0.000000E+00  1.500000E+01
 2.000000E+04  0.000000E+00  1.500000E+01
 0.000000E+00  1.000000E+00  1.500000E+01
 2.000000E+03  1.000000E+00  1.500000E+01
 4.000000E+03  1.000000E+00  1.500000E+01
 6.000000E+03  1.000000E+00  1.500000E+01
 8.000000E+03  1.000000E+00  1.500000E+01
 1.000000E+04  1.000000E+00  1.500000E+01
 1.200000E+04  1.000000E+00  1.500000E+01
 1.400000E+04  1.000000E+00  1.500000E+01
 1.600000E+04  1.000000E+00  1.500000E+01
 1.800000E+04  1.000000E+00  1.500000E+01
 2.000000E+04  1.000000E+00  1.500000E+01
 0.000000E+00  0.000000E+00  2.000000E+01
 2.000000E+03  0.000000E+00  2.000000E+01
 4.000000E+03  0.000000E+00  2.000000E+01
 6.000000E+03  0.000000E+00  2.000000E+01
 8.000000E+03  0.000000E+00  2.000000E+01
 1.000000E+04  0.000000E+00  2.000000E+01
 1.200000E+04  0.000000E+00  2.000000E+01
 1.400000E+04  0.000000E+00  2.000000E+01
 1.600000E+04  0.000000E+00  2.000000E+01
 1.800000E+04  0.000000E+00  2.000000E+01
 2.000000E+04  0.000000E+00  2.000000E+01
 0.000000E+00  1.000000E+00  2.000000E+01
 2.000000E+03  1.000000E+00  2.000000E+01
 4.000000E+03  1.000000E+00  2.000000E+01
 6.000000E+03  1.000000E+00  2.000000E+01
 8.000000E+03  1.000000E+00  2.000000E+01
 1.000000E+04  1.000000E+00  2.000000E+01
 1.200000E+04  1.000000E+00  2.000000E+01
 1.400000E+04  1.000000E+00  2.000000E+01
 1.600000E+04  1.000000E+00  2.000000E+01
 1.800000E+04  1.000000E+00  2.000000E+01
 2.000000E+04  1.000000E+00  2.000000E+01
 0.000000E+00  0.000000E+00  2.500000E+01
 2.000000E+03  0.000000E+00  2.500000E+01
 4.000000E+03  0.000000E+00  2.500000E+01
 6.000000E+03  0.000000E+00  2.500000E+01
 8.000000E+03  0.000000E+00  2.500000E+01
 1.000000E+04  0.000000E+00  2.500000E+01
 1.200000E+04  0.000000E+00  2.500000E+01
 1.400000E+04  0.000000E+00  2.500000E+01
 1.600000E+04  0.000000E+00  2.500000E+01
 1.800000E+04  0.000000E+00  2.500000E+01
 2.000000E+04  0.000000E+00  2.500000E+01
 0.000000E+00  1.000000E+00  2.500000E+01
 2.000000E+03  1.000000E+00  2.500000E+01
 4.000000E+03  1.000000E+00  2.500000E+01
 6.000000E+03  1.000000E+00  2.500000E+01
 8.000000E+03  1.000000E+00  2.500000E+01
 1.000000E+04  1.000000E+00  2.500000E+01
 1.200000E+04  1.000000E+00  2.500000E+01
 1.400000E+04  1.000000E+00  2.500000E+01
 1.600000E+04  1.000000E+00  2.500000E+01
 1.800000E+04  1.000000E+00  2.500000E+01
 2.000000E+04  1.000000E+00  2.500000E+01
 0.000000E+00  0.000000E+00  3.000000E+01
 2.000000E+03  0.000000E+00  3.000000E+01
 4.000000E+03  0.000000E+00  3.000000E+01
 6.000000E+03  0.000000E+00  3.000000E+01
 8.000000E+03  0.000000E+00  3.000000E+01
 1.000000E+04  0.000000E+00  3.000000E+01
 1.200000E+04  0.000000E+00  3.000000E+01
 1.400000E+04  0.000000E+00  3.000000E+01
 1.600000E+04  0.000000E+00  3.000000E+01
 1.800000E+04  0.000000E+00  3.000000E+01
 2.000000E+04  0.000000E+00  3.000000E+01
 0.000000E+00  1.000000E+00  3.000000E+01
 2.000000E+03  1.000000E+00  3.000000E+01
 4.000000E+03  1.000000E+00  3.000000E+01
 6.000000E+03  1.000000E+00  3.000000E+01
 8.000000E+03  1.000000E+00  3.000000E+01
 1.000000E+04  1.000000E+00  3.000000E+01
 1.200000E+04  1.000000E+00  3.000000E+01
 1.400000E+04  1.000000E+00  3.000000E+01
 1.600000E+04  1.000000E+00  3.000000E+01
 1.800000E+04  1.000000E+00  3.000000E+01
 2.000000E+04  1.000000E+00  3.000000E+01
 0.000000E+00  0.000000E+00  3.500000E+01
 2.000000E+03  0.000000E+00  3.500000E+01
 4.000000E+03  0.000000E+00  3.500000E+01
 6.000000E+03  0.000000E+00  3.500000E+01
 8.000000E+03  0.000000E+00  3.500000E+01
 1.000000E+04  0.000000E+00  3.500000E+01
 1.200000E+04  0.000000E+00  3.500000E+01
 1.400000E+04  0.000000E+00  3.500000E+01
 1.600000E+04  0.000000E+00  3.500000E+01
 1.800000E+04  0.000000E+00  3.500000E+01
 2.000000E+04  0.000000E+00  3.500000E+01
 0.000000E+00  1.000000E+00  3.500000E+01
 2.000000E+03  1.000000E+00  3.500000E+01
 4.000000E+03  1.000000E+00  3.500000E+01
 6.000000E+03  1.000000E+00  3.500000E+01
 8.000000E+03  1.000000E+00  3.500000E+01
 1.000000E+04  1.000000E+00  3.500000E+01
 1.200000E+04  1.000000E+00  3.500000E+01
 1.400000E+04  1.000000E+00  3.500000E+01
 1.600000E+04  1.000000E+00  3.500000E+01
 1.800000E+04  1.000000E+00  3.500000E+01
 2.000000E+04  1.000000E+00  3.500000E+01
 0.000000E+00  0.000000E+00  4.000000E+01
 2.000000E+03  0.000000E+00  4.000000E+01
 4.000000E+03  0.000000E+00  4.000000E+01
 6.000000E+03  0.000000E+00  4.000000E+01
 8.000000E+03  0.000000E+00  4.000000E+01
 1.000000E+04  0.000000E+00  4.000000E+01
 1.200000E+04  0.000000E+00  4.000000E+01
 1.400000E+04  0.000000E+00  4.000000E+01
 1.600000E+04  0.000000E+00  4.000000E+01
 1.800000E+04  0.000000E+00  4.000000E+01
 2.000000E+04  0.000000E+00  4.000000E+01
 0.000000E+00  1.000000E+00  4.000000E+01
 2.000000E+03  1.000000E+00  4.000000E+01
 4.000000E+03  1.000000E+00  4.000000E+01
 6.000000E+03  1.000000E+00  4.000000E+01
 8.000000E+03  1.000000E+00  4.000000E+01
 1.000000E+04  1.000000E+00  4.000000E+01
 1.200000E+04  1.000000E+00  4.000000E+01
 1.400000E+04  1.000000E+00  4.000000E+01
 1.600000E+04  1.000000E+00  4.000000E+01
 1.800000E+04  1.000000E+00  4.000000E+01
 2.000000E+04  1.000000E+00  4.000000E+01
 0.000000E+00  0.000000E+00  4.500000E+01
 2.000000E+03  0.000000E+00  4.500000E+01
 4.000000E+03  0.000000E+00  4.500000E+01
 6.000000E+03  0.000000E+00  4.500000E+01
 8.000000E+03  0.000000E+00  4.500000E+01
 1.000000E+04  0.000000E+00  4.500000E+01
 1.200000E+04  0.000000E+00  4.500000E+01
 1.400000E+04  0.000000E+00  4.500000E+01
 1.600000E+04  0.000000E+00  4.500000E+01
 1.800000E+04  0.000000E+00  4.500000E+01
 2.000000E+04  0.000000E+00  4.500000E+01
 0.000000E+00  1.000000E+00  4.500000E+01
 2.000000E+03  1.000000E+00  4.500000E+01
 4.000000E+03  1.000000E+00  4.500000E+01
 6.000000E+03  1.000000E+00  4.500000E+01
 8.000000E+03  1.000000E+00  4.500000E+01
 1.000000E+04  1.000000E+00  4.500000E+01
 1.200000E+04  1.000000E+00  4.500000E+01
 1.400000E+04  1.000000E+00  4.500000E+01
 1.600000E+04  1.000000E+00  4.500000E+01
 1.800000E+04  1.000000E+00  4.500000E+01
 2.000000E+04  1.000000E+00  4.500000E+01
 0.000000E+00  0.000000E+00  5.000000E+01
 2.000000E+03  0.000000E+00  5.000000E+01
 4.000000E+03  0.000000E+00  5.000000E+01
 6.000000E+03  0.000000E+00  5.000000E+01
 8.000000E+03  0.000000E+00  5.000000E+01
 1.000000E+04  0.000000E+00  5.000000E+01
 1.200000E+04  0.000000E+00  5.000000E+01
 1.400000E+04  0.000000E+00  5.000000E+01
 1.600000E+04  0.000000E+00  5.000000E+01
 1.800000E+04  0.000000E+00  5.000000E+01
 2.000000E+04  0.000000E+00  5.000000E+01
 0.000000E+00  1.000000E+00  5.000000E+01
 2.000000E+03  1.000000E+00  5.000000E+01
 4.000000E+03  1.000000E+00  5.000000E+01
 6.000000E+03  1.000000E+00  5.000000E+01
[...]
CELL_DATA      200
SCALARS Porosity             float 1
LOOKUP_TABLE default
 4.377100E-01  4.377100E-01  4.377100E-01  4.377100E-01  4.377100E-01  4.377100E-01  4.377100E-01  4.377100E-01  4.377100E-01  4.377100E-01
 4.377100E-01  4.377100E-01  4.377100E-01  4.377100E-01  4.377100E-01  4.377100E-01  4.377100E-01  4.377100E-01  4.377100E-01  4.377100E-01
 4.377100E-01  4.377100E-01  4.377100E-01  4.377100E-01  4.377100E-01  4.377100E-01  4.377100E-01  4.377100E-01  4.377100E-01  4.377100E-01
 4.377100E-01  4.377100E-01  4.377100E-01  4.377100E-01  4.377100E-01  4.377100E-01  4.377100E-01  4.377100E-01  4.377100E-01  4.377100E-01
 4.377100E-01  4.377100E-01  4.377100E-01  4.377100E-01  4.377100E-01  4.377100E-01  4.377100E-01  4.377100E-01  4.377100E-01  4.377100E-01
 4.377100E-01  4.377100E-01  4.377100E-01  4.377100E-01  4.377100E-01  4.377100E-01  4.377100E-01  4.377100E-01  4.377100E-01  4.377100E-01
 4.377099E-01  4.377100E-01  4.377100E-01  4.377100E-01  4.377100E-01  4.377100E-01  4.377100E-01  4.377100E-01  4.377100E-01  4.377100E-01
 4.377099E-01  4.377100E-01  4.377100E-01  4.377100E-01  4.377100E-01  4.377100E-01  4.377100E-01  4.377100E-01  4.377100E-01  4.377100E-01
 4.377099E-01  4.377100E-01  4.377100E-01  4.377100E-01  4.377100E-01  4.377100E-01  4.377100E-01  4.377100E-01  4.377100E-01  4.377100E-01
 4.377099E-01  4.377100E-01  4.377100E-01  4.377100E-01  4.377100E-01  4.377100E-01  4.377100E-01  4.377100E-01  4.377100E-01  4.377100E-01
 4.377099E-01  4.377100E-01  4.377100E-01  4.377100E-01  4.377100E-01  4.377100E-01  4.377100E-01  4.377100E-01  4.377100E-01  4.377100E-01
 4.377099E-01  4.377100E-01  4.377100E-01  4.377100E-01  4.377100E-01  4.377100E-01  4.377100E-01  4.377100E-01  4.377100E-01  4.377100E-01
 4.377099E-01  4.377100E-01  4.377100E-01  4.377100E-01  4.377100E-01  4.377100E-01  4.377100E-01  4.377100E-01  4.377100E-01  4.377100E-01
 4.377099E-01  4.377100E-01  4.377100E-01  4.377100E-01  4.377100E-01  4.377100E-01  4.377100E-01  4.377100E-01  4.377100E-01  4.377100E-01
 4.377100E-01  4.377100E-01  4.377100E-01  4.377100E-01  4.377100E-01  4.377100E-01  4.377100E-01  4.377100E-01  4.377100E-01  4.377100E-01
 4.377100E-01  4.377100E-01  4.377100E-01  4.377100E-01  4.377100E-01  4.377100E-01  4.377100E-01  4.377100E-01  4.377100E-01  4.377100E-01
 4.377100E-01  4.377100E-01  4.377100E-01  4.377100E-01  4.377100E-01  4.377100E-01  4.377100E-01  4.377100E-01  4.377100E-01  4.377100E-01
 4.377100E-01  4.377100E-01  4.377100E-01  4.377100E-01  4.377100E-01  4.377100E-01  4.377100E-01  4.377100E-01  4.377100E-01  4.377100E-01
 4.377100E-01  4.377100E-01  4.377100E-01  4.377100E-01  4.377100E-01  4.377100E-01  4.377100E-01  4.377100E-01  4.377100E-01  4.377100E-01
 4.377100E-01  4.377100E-01  4.377100E-01  4.377100E-01  4.377100E-01  4.377100E-01  4.377100E-01  4.377100E-01  4.377100E-01  4.377100E-01


SCALARS Permeability         float 1
LOOKUP_TABLE default
 8.829805E-13  8.829804E-13  8.829804E-13  8.829804E-13  8.829803E-13  8.829803E-13  8.829803E-13  8.829803E-13  8.829803E-13  8.829803E-13
 8.829805E-13  8.829804E-13  8.829804E-13  8.829804E-13  8.829804E-13  8.829803E-13  8.829803E-13  8.829803E-13  8.829803E-13  8.829803E-13
 8.829805E-13  8.829804E-13  8.829804E-13  8.829804E-13  8.829804E-13  8.829803E-13  8.829803E-13  8.829803E-13  8.829803E-13  8.829803E-13
 8.829805E-13  8.829804E-13  8.829804E-13  8.829804E-13  8.829804E-13  8.829803E-13  8.829803E-13  8.829803E-13  8.829803E-13  8.829803E-13
 8.829805E-13  8.829804E-13  8.829804E-13  8.829804E-13  8.829804E-13  8.829804E-13  8.829803E-13  8.829803E-13  8.829803E-13  8.829803E-13
 8.829805E-13  8.829804E-13  8.829804E-13  8.829804E-13  8.829804E-13  8.829804E-13  8.829804E-13  8.829803E-13  8.829803E-13  8.829803E-13
 8.829798E-13  8.829804E-13  8.829804E-13  8.829804E-13  8.829804E-13  8.829804E-13  8.829804E-13  8.829803E-13  8.829803E-13  8.829803E-13
 8.829798E-13  8.829804E-13  8.829804E-13  8.829804E-13  8.829804E-13  8.829804E-13  8.829804E-13  8.829804E-13  8.829803E-13  8.829803E-13
 8.829798E-13  8.829804E-13  8.829804E-13  8.829804E-13  8.829804E-13  8.829804E-13  8.829804E-13  8.829804E-13  8.829804E-13  8.829803E-13
 8.829798E-13  8.829804E-13  8.829804E-13  8.829804E-13  8.829804E-13  8.829804E-13  8.829804E-13  8.829804E-13  8.829804E-13  8.829804E-13
 8.829798E-13  8.829804E-13  8.829804E-13  8.829804E-13  8.829804E-13  8.829804E-13  8.829804E-13  8.829804E-13  8.829804E-13  8.829804E-13
 8.829798E-13  8.829804E-13  8.829804E-13  8.829804E-13  8.829804E-13  8.829804E-13  8.829804E-13  8.829804E-13  8.829804E-13  8.829804E-13
 8.829798E-13  8.829805E-13  8.829804E-13  8.829804E-13  8.829804E-13  8.829804E-13  8.829804E-13  8.829804E-13  8.829804E-13  8.829804E-13
 8.829799E-13  8.829805E-13  8.829804E-13  8.829804E-13  8.829804E-13  8.829804E-13  8.829804E-13  8.829804E-13  8.829804E-13  8.829804E-13
 8.829805E-13  8.829805E-13  8.829804E-13  8.829804E-13  8.829804E-13  8.829804E-13  8.829804E-13  8.829804E-13  8.829804E-13  8.829804E-13
 8.829805E-13  8.829805E-13  8.829804E-13  8.829804E-13  8.829804E-13  8.829804E-13  8.829804E-13  8.829804E-13  8.829804E-13  8.829804E-13
 8.829805E-13  8.829805E-13  8.829804E-13  8.829804E-13  8.829804E-13  8.829804E-13  8.829804E-13  8.829804E-13  8.829804E-13  8.829804E-13
 8.829805E-13  8.829805E-13  8.829804E-13  8.829804E-13  8.829804E-13  8.829804E-13  8.829804E-13  8.829804E-13  8.829804E-13  8.829804E-13
 8.829805E-13  8.829805E-13  8.829804E-13  8.829804E-13  8.829804E-13  8.829804E-13  8.829804E-13  8.829804E-13  8.829804E-13  8.829804E-13
 8.829805E-13  8.829805E-13  8.829804E-13  8.829804E-13  8.829804E-13  8.829804E-13  8.829804E-13  8.829804E-13  8.829804E-13  8.829804E-13


SCALARS Liquid_Pressure      float 1
LOOKUP_TABLE default
 8.261105E+06  7.894286E+06  7.730497E+06  7.639351E+06  7.585088E+06  7.551201E+06  7.528363E+06  7.511121E+06  7.496552E+06  7.483415E+06
 8.215939E+06  7.849124E+06  7.685339E+06  7.594196E+06  7.539934E+06  7.506048E+06  7.483210E+06  7.465969E+06  7.451400E+06  7.438264E+06
 8.170779E+06  7.803964E+06  7.640183E+06  7.549042E+06  7.494781E+06  7.460896E+06  7.438059E+06  7.420818E+06  7.406250E+06  7.393114E+06
 8.125625E+06  7.758805E+06  7.595028E+06  7.503890E+06  7.449630E+06  7.415745E+06  7.392909E+06  7.375669E+06  7.361101E+06  7.347965E+06
 8.080477E+06  7.713647E+06  7.549875E+06  7.458738E+06  7.404480E+06  7.370596E+06  7.347761E+06  7.330521E+06  7.315953E+06  7.302818E+06
 8.035335E+06  7.668490E+06  7.504722E+06  7.413588E+06  7.359331E+06  7.325448E+06  7.302613E+06  7.285374E+06  7.270807E+06  7.257672E+06
 7.990199E+06  7.623335E+06  7.459571E+06  7.368439E+06  7.314184E+06  7.280302E+06  7.257467E+06  7.240228E+06  7.225661E+06  7.212527E+06
 7.945057E+06  7.578181E+06  7.414421E+06  7.323292E+06  7.269038E+06  7.235156E+06  7.212322E+06  7.195084E+06  7.180517E+06  7.167383E+06
 7.899910E+06  7.533028E+06  7.369272E+06  7.278145E+06  7.223893E+06  7.190012E+06  7.167179E+06  7.149941E+06  7.135375E+06  7.122241E+06
 7.854756E+06  7.487876E+06  7.324125E+06  7.233000E+06  7.178749E+06  7.144869E+06  7.122037E+06  7.104799E+06  7.090233E+06  7.077099E+06
 7.809596E+06  7.442726E+06  7.278979E+06  7.187856E+06  7.133607E+06  7.099728E+06  7.076896E+06  7.059658E+06  7.045093E+06  7.031959E+06
 7.764431E+06  7.397577E+06  7.233834E+06  7.142714E+06  7.088465E+06  7.054587E+06  7.031756E+06  7.014519E+06  6.999954E+06  6.986821E+06
 7.719260E+06  7.352429E+06  7.188690E+06  7.097573E+06  7.043325E+06  7.009448E+06  6.986617E+06  6.969381E+06  6.954816E+06  6.941683E+06
 7.674083E+06  7.307283E+06  7.143548E+06  7.052433E+06  6.998187E+06  6.964311E+06  6.941480E+06  6.924244E+06  6.909680E+06  6.896547E+06
 7.628899E+06  7.262138E+06  7.098407E+06  7.007294E+06  6.953049E+06  6.919174E+06  6.896344E+06  6.879109E+06  6.864545E+06  6.851413E+06
 7.583722E+06  7.216994E+06  7.053267E+06  6.962156E+06  6.907913E+06  6.874039E+06  6.851209E+06  6.833974E+06  6.819411E+06  6.806279E+06
 7.538551E+06  7.171851E+06  7.008129E+06  6.917020E+06  6.862778E+06  6.828905E+06  6.806076E+06  6.788841E+06  6.774278E+06  6.761147E+06
 7.493386E+06  7.126710E+06  6.962991E+06  6.871885E+06  6.817645E+06  6.783772E+06  6.760944E+06  6.743710E+06  6.729147E+06  6.716016E+06
 7.448227E+06  7.081569E+06  6.917855E+06  6.826751E+06  6.772512E+06  6.738640E+06  6.715813E+06  6.698579E+06  6.684017E+06  6.670886E+06
 7.403075E+06  7.036431E+06  6.872720E+06  6.781619E+06  6.727381E+06  6.693510E+06  6.670683E+06  6.653450E+06  6.638888E+06  6.625757E+06


SCALARS Temperature          float 1
LOOKUP_TABLE default
 1.500445E+02  1.500228E+02  1.500131E+02  1.500077E+02  1.500045E+02  1.500025E+02  1.500012E+02  1.500001E+02  1.499993E+02  1.499985E+02
 1.500445E+02  1.500228E+02  1.500131E+02  1.500077E+02  1.500045E+02  1.500025E+02  1.500012E+02  1.500001E+02  1.499993E+02  1.499985E+02
 1.500445E+02  1.500228E+02  1.500131E+02  1.500077E+02  1.500045E+02  1.500025E+02  1.500012E+02  1.500001E+02  1.499993E+02  1.499985E+02
 1.500445E+02  1.500228E+02  1.500131E+02  1.500077E+02  1.500045E+02  1.500025E+02  1.500012E+02  1.500001E+02  1.499993E+02  1.499985E+02
 1.500445E+02  1.500229E+02  1.500131E+02  1.500077E+02  1.500045E+02  1.500025E+02  1.500012E+02  1.500001E+02  1.499993E+02  1.499985E+02
 1.500445E+02  1.500229E+02  1.500131E+02  1.500077E+02  1.500045E+02  1.500025E+02  1.500012E+02  1.500001E+02  1.499993E+02  1.499985E+02
 1.500443E+02  1.500229E+02  1.500131E+02  1.500077E+02  1.500045E+02  1.500025E+02  1.500012E+02  1.500001E+02  1.499993E+02  1.499985E+02
 1.500444E+02  1.500229E+02  1.500131E+02  1.500077E+02  1.500045E+02  1.500025E+02  1.500012E+02  1.500001E+02  1.499993E+02  1.499985E+02
 1.500444E+02  1.500229E+02  1.500131E+02  1.500077E+02  1.500045E+02  1.500025E+02  1.500012E+02  1.500001E+02  1.499993E+02  1.499985E+02
 1.500444E+02  1.500229E+02  1.500131E+02  1.500077E+02  1.500045E+02  1.500025E+02  1.500012E+02  1.500001E+02  1.499993E+02  1.499985E+02
 1.500444E+02  1.500229E+02  1.500131E+02  1.500077E+02  1.500045E+02  1.500025E+02  1.500012E+02  1.500001E+02  1.499993E+02  1.499985E+02
 1.500444E+02  1.500229E+02  1.500132E+02  1.500077E+02  1.500045E+02  1.500025E+02  1.500012E+02  1.500001E+02  1.499993E+02  1.499985E+02
 1.500445E+02  1.500229E+02  1.500132E+02  1.500077E+02  1.500045E+02  1.500025E+02  1.500012E+02  1.500001E+02  1.499993E+02  1.499985E+02
 1.500445E+02  1.500229E+02  1.500132E+02  1.500077E+02  1.500045E+02  1.500025E+02  1.500012E+02  1.500001E+02  1.499993E+02  1.499985E+02
 1.500446E+02  1.500229E+02  1.500132E+02  1.500078E+02  1.500045E+02  1.500025E+02  1.500012E+02  1.500001E+02  1.499993E+02  1.499985E+02
 1.500446E+02  1.500229E+02  1.500132E+02  1.500078E+02  1.500045E+02  1.500025E+02  1.500012E+02  1.500001E+02  1.499993E+02  1.499985E+02
 1.500446E+02  1.500229E+02  1.500132E+02  1.500078E+02  1.500045E+02  1.500025E+02  1.500012E+02  1.500001E+02  1.499993E+02  1.499985E+02
 1.500446E+02  1.500229E+02  1.500132E+02  1.500078E+02  1.500045E+02  1.500025E+02  1.500012E+02  1.500001E+02  1.499993E+02  1.499985E+02
 1.500446E+02  1.500229E+02  1.500132E+02  1.500078E+02  1.500045E+02  1.500025E+02  1.500012E+02  1.500001E+02  1.499993E+02  1.499985E+02
 1.500446E+02  1.500229E+02  1.500132E+02  1.500078E+02  1.500045E+02  1.500025E+02  1.500012E+02  1.500001E+02  1.499993E+02  1.499985E+02


SCALARS pH                   float 1
LOOKUP_TABLE default
 6.144351E+00  6.144319E+00  6.144305E+00  6.144297E+00  6.144292E+00  6.144289E+00  6.144287E+00  6.144285E+00  6.144284E+00  6.144283E+00
 6.144351E+00  6.144319E+00  6.144305E+00  6.144297E+00  6.144292E+00  6.144289E+00  6.144287E+00  6.144285E+00  6.144284E+00  6.144283E+00
 6.144351E+00  6.144319E+00  6.144305E+00  6.144297E+00  6.144292E+00  6.144289E+00  6.144287E+00  6.144285E+00  6.144284E+00  6.144283E+00
 6.144351E+00  6.144319E+00  6.144305E+00  6.144297E+00  6.144292E+00  6.144289E+00  6.144287E+00  6.144285E+00  6.144284E+00  6.144283E+00
 6.144351E+00  6.144319E+00  6.144305E+00  6.144297E+00  6.144292E+00  6.144289E+00  6.144287E+00  6.144285E+00  6.144284E+00  6.144283E+00
 6.144351E+00  6.144319E+00  6.144305E+00  6.144297E+00  6.144292E+00  6.144289E+00  6.144287E+00  6.144285E+00  6.144284E+00  6.144283E+00
 6.144355E+00  6.144319E+00  6.144305E+00  6.144297E+00  6.144292E+00  6.144289E+00  6.144287E+00  6.144285E+00  6.144284E+00  6.144283E+00
 6.144355E+00  6.144319E+00  6.144305E+00  6.144297E+00  6.144292E+00  6.144289E+00  6.144287E+00  6.144285E+00  6.144284E+00  6.144283E+00
 6.144355E+00  6.144319E+00  6.144305E+00  6.144297E+00  6.144292E+00  6.144289E+00  6.144287E+00  6.144285E+00  6.144284E+00  6.144283E+00
 6.144355E+00  6.144319E+00  6.144305E+00  6.144297E+00  6.144292E+00  6.144289E+00  6.144287E+00  6.144285E+00  6.144284E+00  6.144283E+00
 6.144355E+00  6.144319E+00  6.144305E+00  6.144297E+00  6.144292E+00  6.144289E+00  6.144287E+00  6.144285E+00  6.144284E+00  6.144283E+00
 6.144355E+00  6.144319E+00  6.144305E+00  6.144297E+00  6.144292E+00  6.144289E+00  6.144287E+00  6.144285E+00  6.144284E+00  6.144283E+00
 6.144355E+00  6.144319E+00  6.144305E+00  6.144297E+00  6.144292E+00  6.144289E+00  6.144287E+00  6.144285E+00  6.144284E+00  6.144283E+00
 6.144355E+00  6.144319E+00  6.144305E+00  6.144297E+00  6.144292E+00  6.144289E+00  6.144287E+00  6.144285E+00  6.144284E+00  6.144283E+00
 6.144352E+00  6.144319E+00  6.144305E+00  6.144297E+00  6.144292E+00  6.144289E+00  6.144287E+00  6.144285E+00  6.144284E+00  6.144283E+00
 6.144352E+00  6.144319E+00  6.144305E+00  6.144297E+00  6.144292E+00  6.144289E+00  6.144287E+00  6.144285E+00  6.144284E+00  6.144283E+00
 6.144352E+00  6.144319E+00  6.144305E+00  6.144297E+00  6.144292E+00  6.144289E+00  6.144287E+00  6.144285E+00  6.144284E+00  6.144283E+00
 6.144352E+00  6.144319E+00  6.144305E+00  6.144297E+00  6.144292E+00  6.144289E+00  6.144287E+00  6.144285E+00  6.144284E+00  6.144283E+00
 6.144352E+00  6.144319E+00  6.144305E+00  6.144297E+00  6.144292E+00  6.144289E+00  6.144287E+00  6.144285E+00  6.144284E+00  6.144283E+00
 6.144352E+00  6.144319E+00  6.144305E+00  6.144297E+00  6.144292E+00  6.144289E+00  6.144287E+00  6.144285E+00  6.144284E+00  6.144283E+00


SCALARS Total_H+             float 1
LOOKUP_TABLE default
-3.045528E-03 -3.046279E-03 -3.046618E-03 -3.046807E-03 -3.046921E-03 -3.046991E-03 -3.047039E-03 -3.047075E-03 -3.047105E-03 -3.047131E-03
-3.045528E-03 -3.046279E-03 -3.046618E-03 -3.046807E-03 -3.046920E-03 -3.046991E-03 -3.047039E-03 -3.047075E-03 -3.047104E-03 -3.047131E-03
-3.045527E-03 -3.046278E-03 -3.046617E-03 -3.046806E-03 -3.046920E-03 -3.046991E-03 -3.047038E-03 -3.047074E-03 -3.047104E-03 -3.047131E-03
-3.045527E-03 -3.046278E-03 -3.046617E-03 -3.046806E-03 -3.046919E-03 -3.046990E-03 -3.047038E-03 -3.047074E-03 -3.047104E-03 -3.047130E-03
-3.045527E-03 -3.046277E-03 -3.046616E-03 -3.046806E-03 -3.046919E-03 -3.046990E-03 -3.047037E-03 -3.047073E-03 -3.047103E-03 -3.047130E-03
-3.045526E-03 -3.046277E-03 -3.046616E-03 -3.046805E-03 -3.046918E-03 -3.046989E-03 -3.047037E-03 -3.047073E-03 -3.047103E-03 -3.047129E-03
-3.045507E-03 -3.046276E-03 -3.046615E-03 -3.046805E-03 -3.046918E-03 -3.046989E-03 -3.047037E-03 -3.047072E-03 -3.047102E-03 -3.047129E-03
-3.045506E-03 -3.046275E-03 -3.046615E-03 -3.046804E-03 -3.046917E-03 -3.046988E-03 -3.047036E-03 -3.047072E-03 -3.047102E-03 -3.047129E-03
-3.045505E-03 -3.046275E-03 -3.046614E-03 -3.046804E-03 -3.046917E-03 -3.046988E-03 -3.047036E-03 -3.047072E-03 -3.047102E-03 -3.047128E-03
-3.045505E-03 -3.046274E-03 -3.046614E-03 -3.046803E-03 -3.046917E-03 -3.046987E-03 -3.047035E-03 -3.047071E-03 -3.047101E-03 -3.047128E-03
-3.045504E-03 -3.046274E-03 -3.046613E-03 -3.046803E-03 -3.046916E-03 -3.046987E-03 -3.047035E-03 -3.047071E-03 -3.047101E-03 -3.047127E-03
-3.045503E-03 -3.046273E-03 -3.046613E-03 -3.046802E-03 -3.046916E-03 -3.046987E-03 -3.047034E-03 -3.047070E-03 -3.047100E-03 -3.047127E-03
-3.045503E-03 -3.046273E-03 -3.046612E-03 -3.046802E-03 -3.046915E-03 -3.046986E-03 -3.047034E-03 -3.047070E-03 -3.047100E-03 -3.047126E-03
-3.045502E-03 -3.046272E-03 -3.046612E-03 -3.046801E-03 -3.046915E-03 -3.046986E-03 -3.047034E-03 -3.047069E-03 -3.047099E-03 -3.047126E-03
-3.045517E-03 -3.046272E-03 -3.046611E-03 -3.046801E-03 -3.046914E-03 -3.046985E-03 -3.047033E-03 -3.047069E-03 -3.047099E-03 -3.047126E-03
-3.045516E-03 -3.046271E-03 -3.046611E-03 -3.046801E-03 -3.046914E-03 -3.046985E-03 -3.047033E-03 -3.047069E-03 -3.047099E-03 -3.047125E-03
-3.045516E-03 -3.046271E-03 -3.046610E-03 -3.046800E-03 -3.046913E-03 -3.046984E-03 -3.047032E-03 -3.047068E-03 -3.047098E-03 -3.047125E-03
-3.045516E-03 -3.046270E-03 -3.046610E-03 -3.046800E-03 -3.046913E-03 -3.046984E-03 -3.047032E-03 -3.047068E-03 -3.047098E-03 -3.047124E-03
-3.045516E-03 -3.046270E-03 -3.046609E-03 -3.046799E-03 -3.046913E-03 -3.046984E-03 -3.047031E-03 -3.047067E-03 -3.047097E-03 -3.047124E-03
-3.045515E-03 -3.046269E-03 -3.046609E-03 -3.046799E-03 -3.046912E-03 -3.046983E-03 -3.047031E-03 -3.047067E-03 -3.047097E-03 -3.047124E-03


SCALARS Total_SiO2(aq)       float 1
LOOKUP_TABLE default
 1.039586E-02  1.039400E-02  1.039317E-02  1.039271E-02  1.039243E-02  1.039226E-02  1.039215E-02  1.039206E-02  1.039199E-02  1.039192E-02
 1.039586E-02  1.039400E-02  1.039317E-02  1.039271E-02  1.039243E-02  1.039226E-02  1.039215E-02  1.039206E-02  1.039199E-02  1.039192E-02
 1.039586E-02  1.039400E-02  1.039317E-02  1.039271E-02  1.039243E-02  1.039226E-02  1.039215E-02  1.039206E-02  1.039199E-02  1.039192E-02
 1.039586E-02  1.039400E-02  1.039317E-02  1.039271E-02  1.039243E-02  1.039226E-02  1.039215E-02  1.039206E-02  1.039199E-02  1.039192E-02
 1.039586E-02  1.039400E-02  1.039317E-02  1.039271E-02  1.039243E-02  1.039226E-02  1.039215E-02  1.039206E-02  1.039199E-02  1.039192E-02
 1.039586E-02  1.039400E-02  1.039317E-02  1.039271E-02  1.039243E-02  1.039226E-02  1.039215E-02  1.039206E-02  1.039199E-02  1.039192E-02
 1.039608E-02  1.039400E-02  1.039317E-02  1.039271E-02  1.039243E-02  1.039226E-02  1.039215E-02  1.039206E-02  1.039199E-02  1.039192E-02
 1.039608E-02  1.039400E-02  1.039317E-02  1.039271E-02  1.039243E-02  1.039226E-02  1.039215E-02  1.039206E-02  1.039199E-02  1.039192E-02
 1.039609E-02  1.039401E-02  1.039317E-02  1.039271E-02  1.039243E-02  1.039226E-02  1.039215E-02  1.039206E-02  1.039199E-02  1.039192E-02
 1.039609E-02  1.039401E-02  1.039317E-02  1.039271E-02  1.039243E-02  1.039226E-02  1.039215E-02  1.039206E-02  1.039199E-02  1.039192E-02
 1.039609E-02  1.039401E-02  1.039317E-02  1.039271E-02  1.039243E-02  1.039226E-02  1.039215E-02  1.039206E-02  1.039199E-02  1.039192E-02
 1.039609E-02  1.039401E-02  1.039317E-02  1.039271E-02  1.039243E-02  1.039226E-02  1.039215E-02  1.039206E-02  1.039199E-02  1.039192E-02
 1.039609E-02  1.039401E-02  1.039317E-02  1.039271E-02  1.039243E-02  1.039226E-02  1.039215E-02  1.039206E-02  1.039199E-02  1.039192E-02
 1.039609E-02  1.039401E-02  1.039317E-02  1.039271E-02  1.039243E-02  1.039226E-02  1.039215E-02  1.039206E-02  1.039199E-02  1.039192E-02
 1.039588E-02  1.039401E-02  1.039317E-02  1.039271E-02  1.039243E-02  1.039226E-02  1.039215E-02  1.039206E-02  1.039199E-02  1.039192E-02
 1.039588E-02  1.039401E-02  1.039317E-02  1.039271E-02  1.039243E-02  1.039226E-02  1.039215E-02  1.039206E-02  1.039199E-02  1.039192E-02
 1.039587E-02  1.039401E-02  1.039317E-02  1.039271E-02  1.039243E-02  1.039226E-02  1.039215E-02  1.039206E-02  1.039199E-02  1.039192E-02
 1.039587E-02  1.039401E-02  1.039317E-02  1.039271E-02  1.039243E-02  1.039226E-02  1.039215E-02  1.039206E-02  1.039199E-02  1.039192E-02
 1.039587E-02  1.039401E-02  1.039317E-02  1.039271E-02  1.039243E-02  1.039226E-02  1.039215E-02  1.039206E-02  1.039199E-02  1.039192E-02