# vtk DataFile Version 2.0
PFLOTRAN output
ASCII
DATASET UNSTRUCTURED_GRID
POINTS          462 float
 0.000000E+00  0.000000E+00  0.000000E+00
 2.000000E+03  0.000000E+00  0.000000E+00
 4.000000E+03  0.000000E+00  0.000000E+00
 6.000000E+03  0.000000E+00  0.000000E+00
 8.000000E+03  0.000000E+00  0.000000E+00
 1.000000E+04  0.000000E+00  0.000000E+00
 1.200000E+04  0.000000E+00  0.000000E+00
 1.400000E+04  0.000000E+00  0.000000E+00
 1.600000E+04  0.000000E+00  0.000000E+00
 1.800000E+04  0.000000E+00  0.000000E+00
 2.000000E+04  0.000000E+00  0.000000E+00
 0.000000E+00  1.000000E+00  0.000000E+00
 2.000000E+03  1.000000E+00  0.000000E+00
 4.000000E+03  1.000000E+00  0.000000E+00
 6.000000E+03  1.000000E+00  0.000000E+00
 8.000000E+03  1.000000E+00  0.000000E+00
 1.000000E+04  1.000000E+00  0.000000E+00
 1.200000E+04  1.000000E+00  0.000000E+00
 1.400000E+04  1.000000E+00  0.000000E+00
 1.600000E+04  1.000000E+00  0.000000E+00
 1.800000E+04  1.000000E+00  0.000000E+00
 2.000000E+04  1.000000E+00  0.000000E+00
 0.000000E+00  0.000000E+00  5.000000E+00
 2.000000E+03  0.000000E+00  5.000000E+00
 4.000000E+03  0.000000E+00  5.000000E+00
 6.000000E+03  0.000000E+00  5.000000E+00
 8.000000E+03  0.000000E+00  5.000000E+00
 1.000000E+04  0.000000E+00  5.000000E+00
 1.200000E+04  0.000000E+00  5.000000E+00
 1.400000E+04  0.000000E+00  5.000000E+00
 1.600000E+04  0.000000E+00  5.000000E+00
 1.800000E+04  0.000000E+00  5.000000E+00
 2.000000E+04  0.000000E+00  5.000000E+00
 0.000000E+00  1.000000E+00  5.000000E+00
 2.000000E+03  1.000000E+00  5.000000E+00
 4.000000E+03  1.000000E+00  5.000000E+00
 6.000000E+03  1.000000E+00  5.000000E+00
 8.000000E+03  1.000000E+00  5.000000E+00
 1.000000E+04  1.000000E+00  5.000000E+00
 1.200000E+04  1.000000E+00  5.000000E+00
 1.400000E+04  1.000000E+00  5.000000E+00
 1.600000E+04  1.000000E+00  5.000000E+00
 1.800000E+04  1.000000E+00  5.000000E+00
 2.000000E+04  1.000000E+00  5.000000E+00
 0.000000E+00  0.000000E+00  1.000000E+01
 2.000000E+03  0.000000E+00  1.000000E+01
 4.000000E+03  0.000000E+00  1.000000E+01
 6.000000E+03  0.000000E+00  1.000000E+01
 8.000000E+03  0.000000E+00  1.000000E+01
 1.000000E+04  0.000000E+00  1.000000E+01
 1.200000E+04  0.000000E+00  1.000000E+01
 1.400000E+04  0.000000E+00  1.000000E+01
 1.600000E+04  0.000000E+00  1.000000E+01
 1.800000E+04  0.000000E+00  1.000000E+01
 2.000000E+04  0.000000E+00  1.000000E+01
 0.000000E+00  1.000000E+00  1.000000E+01
 2.000000E+03  1.000000E+00  1.000000E+01
 4.000000E+03  1.000000E+00  1.000000E+01
 6.000000E+03  1.000000E+00  1.000000E+01
 8.000000E+03  1.000000E+00  1.000000E+01
 1.000000E+04  1.000000E+00  1.000000E+01
 1.200000E+04  1.000000E+00  1.000000E+01
 1.400000E+04  1.000000E+00  1.000000E+01
 1.600000E+04  1.000000E+00  1.000000E+01
 1.800000E+04  1.000000E+00  1.000000E+01
 2.000000E+04  1.000000E+00  1.000000E+01
 0.000000E+00  0.000000E+00  1.500000E+01
 2.000000E+03  0.000000E+00  1.500000E+01
 4.000000E+03  0.000000E+00  1.500000E+01
 6.000000E+03  0.000000E+00  1.500000E+01
 8.000000E+03  0.000000E+00  1.500000E+01
 1.000000E+04  0.000000E+00  1.500000E+01
 1.200000E+04  0.000000E+00  1.500000E+01
 1.400000E+04  0.000000E+00  1.500000E+01
 1.600000E+04  0.000000E+00  1.500000E+01
 1.800000E+04  0.000000E+00  1.500000E+01
 2.000000E+04  0.000000E+00  1.500000E+01
 0.000000E+00  1.000000E+00  1.500000E+01
 2.000000E+03  1.000000E+00  1.500000E+01
 4.000000E+03  1.000000E+00  1.500000E+01
 6.000000E+03  1.000000E+00  1.500000E+01
 8.000000E+03  1.000000E+00  1.500000E+01
 1.000000E+04  1.000000E+00  1.500000E+01
 1.200000E+04  1.000000E+00  1.500000E+01
 1.400000E+04  1.000000E+00  1.500000E+01
 1.600000E+04  1.000000E+00  1.500000E+01
 1.800000E+04  1.000000E+00  1.500000E+01
 2.000000E+04  1.000000E+00  1.500000E+01
 0.000000E+00  0.000000E+00  2.000000E+01
 2.000000E+03  0.000000E+00  2.000000E+01
 4.000000E+03  0.000000E+00  2.000000E+01
 6.000000E+03  0.000000E+00  2.000000E+01
 8.000000E+03  0.000000E+00  2.000000E+01
 1.000000E+04  0.000000E+00  2.000000E+01
 1.200000E+04  0.000000E+00  2.000000E+01
 1.400000E+04  0.000000E+00  2.000000E+01
 1.600000E+04  0.000000E+00  2.000000E+01
 1.800000E+04  0.000000E+00  2.000000E+01
 2.000000E+04  0.000000E+00  2.000000E+01
 0.000000E+00  1.000000E+00  2.000000E+01
 2.000000E+03  1.000000E+00  2.000000E+01
 4.000000E+03  1.000000E+00  2.000000E+01
 6.000000E+03  1.000000E+00  2.000000E+01
 8.000000E+03  1.000000E+00  2.000000E+01
 1.000000E+04  1.000000E+00  2.000000E+01
 1.200000E+04  1.000000E+00  2.000000E+01
 1.400000E+04  1.000000E+00  2.000000E+01
 1.600000E+04  1.000000E+00  2.000000E+01
 1.800000E+04  1.000000E+00  2.000000E+01
 2.000000E+04  1.000000E+00  2.000000E+01
 0.000000E+00  0.000000E+00  2.500000E+01
 2.000000E+03  0.000000E+00  2.500000E+01
 4.000000E+03  0.000000E+00  2.500000E+01
 6.000000E+03  0.000000E+00  2.500000E+01
 8.000000E+03  0.000000E+00  2.500000E+01
 1.000000E+04  0.000000E+00  2.500000E+01
 1.200000E+04  0.000000E+00  2.500000E+01
 1.400000E+04  0.000000E+00  2.500000E+01
 1.600000E+04  0.000000E+00  2.500000E+01
 1.800000E+04  0.000000E+00  2.500000E+01
 2.000000E+04  0.000000E+00  2.500000E+01
 0.000000E+00  1.000000E+00  2.500000E+01
 2.000000E+03  1.000000E+00  2.500000E+01
 4.000000E+03  1.000000E+00  2.500000E+01
 6.000000E+03  1.000000E+00  2.500000E+01
 8.000000E+03  1.000000E+00  2.500000E+01
 1.000000E+04  1.000000E+00  2.500000E+01
 1.200000E+04  1.000000E+00  2.500000E+01
 1.400000E+04  1.000000E+00  2.500000E+01
 1.600000E+04  1.000000E+00  2.500000E+01
 1.800000E+04  1.000000E+00  2.500000E+01
 2.000000E+04  1.000000E+00  2.500000E+01
 0.000000E+00  0.000000E+00  3.000000E+01
 2.000000E+03  0.000000E+00  3.000000E+01
 4.000000E+03  0.000000E+00  3.000000E+01
 6.000000E+03  0.000000E+00  3.000000E+01
 8.000000E+03  0.000000E+00  3.000000E+01
 1.000000E+04  0.000000E+00  3.000000E+01
 1.200000E+04  0.000000E+00  3.000000E+01
 1.400000E+04  0.000000E+00  3.000000E+01
 1.600000E+04  0.000000E+00  3.000000E+01
 1.800000E+04  0.000000E+00  3.000000E+01
 2.000000E+04  0.000000E+00  3.000000E+01
 0.000000E+00  1.000000E+00  3.000000E+01
 2.000000E+03  1.000000E+00  3.000000E+01
 4.000000E+03  1.000000E+00  3.000000E+01
 6.000000E+03  1.000000E+00  3.000000E+01
 8.000000E+03  1.000000E+00  3.000000E+01
 1.000000E+04  1.000000E+00  3.000000E+01
 1.200000E+04  1.000000E+00  3.000000E+01
 1.400000E+04  1.000000E+00  3.000000E+01
 1.600000E+04  1.000000E+00  3.000000E+01
 1.800000E+04  1.000000E+00  3.000000E+01
 2.000000E+04  1.000000E+00  3.000000E+01
 0.000000E+00  0.000000E+00  3.500000E+01
 2.000000E+03  0.000000E+00  3.500000E+01
 4.000000E+03  0.000000E+00  3.500000E+01
 6.000000E+03  0.000000E+00  3.500000E+01
 8.000000E+03  0.000000E+00  3.500000E+01
 1.000000E+04  0.000000E+00  3.500000E+01
 1.200000E+04  0.000000E+00  3.500000E+01
 1.400000E+04  0.000000E+00  3.500000E+01
 1.600000E+04  0.000000E+00  3.500000E+01
 1.800000E+04  0.000000E+00  3.500000E+01
 2.000000E+04  0.000000E+00  3.500000E+01
 0.000000E+00  1.000000E+00  3.500000E+01
 2.000000E+03  1.000000E+00  3.500000E+01
 4.000000E+03  1.000000E+00  3.500000E+01
 6.000000E+03  1.000000E+00  3.500000E+01
 8.000000E+03  1.000000E+00  3.500000E+01
 1.000000E+04  1.000000E+00  3.500000E+01
 1.200000E+04  1.000000E+00  3.500000E+01
 1.400000E+04  1.000000E+00  3.500000E+01
 1.600000E+04  1.000000E+00  3.500000E+01
 1.800000E+04  1.000000E+00  3.500000E+01
 2.000000E+04  1.000000E+00  3.500000E+01
 0.000000E+00  0.000000E+00  4.000000E+01
 2.000000E+03  0.000000E+00  4.000000E+01
 4.000000E+03  0.000000E+00  4.000000E+01
 6.000000E+03  0.000000E+00  4.000000E+01
 8.000000E+03  0.000000E+00  4.000000E+01
 1.000000E+04  0.000000E+00  4.000000E+01
 1.200000E+04  0.000000E+00  4.000000E+01
 1.400000E+04  0.000000E+00  4.000000E+01
 1.600000E+04  0.000000E+00  4.000000E+01
 1.800000E+04  0.000000E+00  4.000000E+01
 2.000000E+04  0.000000E+00  4.000000E+01
 0.000000E+00  1.000000E+00  4.000000E+01
 2.000000E+03  1.000000E+00  4.000000E+01
 4.000000E+03  1.000000E+00  4.000000E+01
 6.000000E+03  1.000000E+00  4.000000E+01
 8.000000E+03  1.000000E+00  4.000000E+01
 1.000000E+04  1.000000E+00  4.000000E+01
 1.200000E+04  1.000000E+00  4.000000E+01
 1.400000E+04  1.000000E+00  4.000000E+01
 1.600000E+04  1.000000E+00  4.000000E+01
 1.800000E+04  1.000000E+00  4.000000E+01
 2.000000E+04  1.000000E+00  4.000000E+01
 0.000000E+00  0.000000E+00  4.500000E+01
 2.000000E+03  0.000000E+00  4.500000E+01
 4.000000E+03  0.000000E+00  4.500000E+01
 6.000000E+03  0.000000E+00  4.500000E+01
 8.000000E+03  0.000000E+00  4.500000E+01
 1.000000E+04  0.000000E+00  4.500000E+01
 1.200000E+04  0.000000E+00  4.500000E+01
 1.400000E+04  0.000000E+00  4.500000E+01
 1.600000E+04  0.000000E+00  4.500000E+01
 1.800000E+04  0.000000E+00  4.500000E+01
 2.000000E+04  0.000000E+00  4.500000E+01
 0.000000E+00  1.000000E+00  4.500000E+01
 2.000000E+03  1.000000E+00  4.500000E+01
 4.000000E+03  1.000000E+00  4.500000E+01
 6.000000E+03  1.000000E+00  4.500000E+01
 8.000000E+03  1.000000E+00  4.500000E+01
 1.000000E+04  1.000000E+00  4.500000E+01
 1.200000E+04  1.000000E+00  4.500000E+01
 1.400000E+04  1.000000E+00  4.500000E+01
 1.600000E+04  1.000000E+00  4.500000E+01
 1.800000E+04  1.000000E+00  4.500000E+01
 2.000000E+04  1.000000E+00  4.500000E+01
 0.000000E+00  0.000000E+00  5.000000E+01
 2.000000E+03  0.000000E+00  5.000000E+01
 4.000000E+03  0.000000E+00  5.000000E+01
 6.000000E+03  0.000000E+00  5.000000E+01
 8.000000E+03  0.000000E+00  5.000000E+01
 1.000000E+04  0.000000E+00  5.000000E+01
 1.200000E+04  0.000000E+00  5.000000E+01
 1.400000E+04  0.000000E+00  5.000000E+01
 1.600000E+04  0.000000E+00  5.000000E+01
 1.800000E+04  0.000000E+00  5.000000E+01
 2.000000E+04  0.000000E+00  5.000000E+01
 0.000000E+00  1.000000E+00  5.000000E+01
 2.000000E+03  1.000000E+00  5.000000E+01
 4.000000E+03  1.000000E+00  5.000000E+01
 6.000000E+03  1.000000E+00  5.000000E+01
[...]
CELL_DATA      200
SCALARS Porosity             float 1
LOOKUP_TABLE default
 4.377101E-01  4.377101E-01  4.377101E-01  4.377101E-01  4.377101E-01  4.377101E-01  4.377101E-01  4.377101E-01  4.377101E-01  4.377101E-01
 4.377101E-01  4.377101E-01  4.377101E-01  4.377101E-01  4.377101E-01  4.377101E-01  4.377101E-01  4.377101E-01  4.377101E-01  4.377101E-01
 4.377101E-01  4.377101E-01  4.377101E-01  4.377101E-01  4.377101E-01  4.377101E-01  4.377101E-01  4.377101E-01  4.377101E-01  4.377101E-01
 4.377101E-01  4.377101E-01  4.377101E-01  4.377101E-01  4.377101E-01  4.377101E-01  4.377101E-01  4.377101E-01  4.377101E-01  4.377101E-01
 4.377101E-01  4.377101E-01  4.377101E-01  4.377101E-01  4.377101E-01  4.377101E-01  4.377101E-01  4.377101E-01  4.377101E-01  4.377101E-01
 4.377101E-01  4.377101E-01  4.377101E-01  4.377101E-01  4.377101E-01  4.377101E-01  4.377101E-01  4.377101E-01  4.377101E-01  4.377101E-01
 4.377101E-01  4.377101E-01  4.377101E-01  4.377101E-01  4.377101E-01  4.377101E-01  4.377101E-01  4.377101E-01  4.377101E-01  4.377101E-01
 4.377101E-01  4.377101E-01  4.377101E-01  4.377101E-01  4.377101E-01  4.377101E-01  4.377101E-01  4.377101E-01  4.377101E-01  4.377101E-01
 4.377101E-01  4.377101E-01  4.377101E-01  4.377101E-01  4.377101E-01  4.377101E-01  4.377101E-01  4.377101E-01  4.377101E-01  4.377101E-01
 4.377101E-01  4.377101E-01  4.377101E-01  4.377101E-01  4.377101E-01  4.377101E-01  4.377101E-01  4.377101E-01  4.377101E-01  4.377101E-01
 4.377101E-01  4.377101E-01  4.377101E-01  4.377101E-01  4.377101E-01  4.377101E-01  4.377101E-01  4.377101E-01  4.377101E-01  4.377101E-01
 4.377101E-01  4.377101E-01  4.377101E-01  4.377101E-01  4.377101E-01  4.377101E-01  4.377101E-01  4.377101E-01  4.377101E-01  4.377101E-01
 4.377101E-01  4.377101E-01  4.377101E-01  4.377101E-01  4.377101E-01  4.377101E-01  4.377101E-01  4.377101E-01  4.377101E-01  4.377101E-01
 4.377101E-01  4.377101E-01  4.377101E-01  4.377101E-01  4.377101E-01  4.377101E-01  4.377101E-01  4.377101E-01  4.377101E-01  4.377101E-01
 4.377101E-01  4.377101E-01  4.377101E-01  4.377101E-01  4.377101E-01  4.377101E-01  4.377101E-01  4.377101E-01  4.377101E-01  4.377101E-01
 4.377101E-01  4.377101E-01  4.377101E-01  4.377101E-01  4.377101E-01  4.377101E-01  4.377101E-01  4.377101E-01  4.377101E-01  4.377101E-01
 4.377101E-01  4.377101E-01  4.377101E-01  4.377101E-01  4.377101E-01  4.377101E-01  4.377101E-01  4.377101E-01  4.377101E-01  4.377101E-01
 4.377101E-01  4.377101E-01  4.377101E-01  4.377101E-01  4.377101E-01  4.377101E-01  4.377101E-01  4.377101E-01  4.377101E-01  4.377101E-01
 4.377102E-01  4.377101E-01  4.377101E-01  4.377101E-01  4.377101E-01  4.377101E-01  4.377101E-01  4.377101E-01  4.377101E-01  4.377101E-01
 4.377102E-01  4.377101E-01  4.377101E-01  4.377101E-01  4.377101E-01  4.377101E-01  4.377101E-01  4.377101E-01  4.377101E-01  4.377101E-01


SCALARS Permeability         float 1
LOOKUP_TABLE default
 8.829812E-13  8.829812E-13  8.829812E-13  8.829812E-13  8.829812E-13  8.829812E-13  8.829812E-13  8.829812E-13  8.829812E-13  8.829812E-13
 8.829812E-13  8.829812E-13  8.829812E-13  8.829812E-13  8.829812E-13  8.829812E-13  8.829812E-13  8.829812E-13  8.829812E-13  8.829812E-13
 8.829812E-13  8.829812E-13  8.829812E-13  8.829812E-13  8.829812E-13  8.829812E-13  8.829812E-13  8.829812E-13  8.829812E-13  8.829812E-13
 8.829812E-13  8.829812E-13  8.829812E-13  8.829812E-13  8.829812E-13  8.829812E-13  8.829812E-13  8.829812E-13  8.829812E-13  8.829812E-13
 8.829812E-13  8.829812E-13  8.829812E-13  8.829812E-13  8.829812E-13  8.829812E-13  8.829812E-13  8.829812E-13  8.829812E-13  8.829812E-13
 8.829813E-13  8.829812E-13  8.829812E-13  8.829812E-13  8.829812E-13  8.829812E-13  8.829812E-13  8.829812E-13  8.829812E-13  8.829812E-13
 8.829812E-13  8.829812E-13  8.829812E-13  8.829812E-13  8.829812E-13  8.829812E-13  8.829812E-13  8.829812E-13  8.829812E-13  8.829812E-13
 8.829812E-13  8.829812E-13  8.829812E-13  8.829812E-13  8.829812E-13  8.829812E-13  8.829812E-13  8.829812E-13  8.829812E-13  8.829812E-13
 8.829812E-13  8.829812E-13  8.829812E-13  8.829812E-13  8.829812E-13  8.829812E-13  8.829812E-13  8.829812E-13  8.829812E-13  8.829812E-13
 8.829812E-13  8.829812E-13  8.829812E-13  8.829812E-13  8.829812E-13  8.829812E-13  8.829812E-13  8.829812E-13  8.829812E-13  8.829812E-13
 8.829812E-13  8.829812E-13  8.829812E-13  8.829812E-13  8.829812E-13  8.829812E-13  8.829812E-13  8.829812E-13  8.829812E-13  8.829812E-13
 8.829812E-13  8.829812E-13  8.829812E-13  8.829812E-13  8.829812E-13  8.829812E-13  8.829812E-13  8.829812E-13  8.829812E-13  8.829812E-13
 8.829812E-13  8.829812E-13  8.829812E-13  8.829812E-13  8.829812E-13  8.829812E-13  8.829812E-13  8.829812E-13  8.829812E-13  8.829812E-13
 8.829812E-13  8.829812E-13  8.829812E-13  8.829812E-13  8.829812E-13  8.829812E-13  8.829812E-13  8.829812E-13  8.829812E-13  8.829812E-13
 8.829813E-13  8.829812E-13  8.829812E-13  8.829812E-13  8.829812E-13  8.829812E-13  8.829812E-13  8.829812E-13  8.829812E-13  8.829812E-13
 8.829813E-13  8.829812E-13  8.829812E-13  8.829812E-13  8.829812E-13  8.829812E-13  8.829812E-13  8.829812E-13  8.829812E-13  8.829812E-13
 8.829813E-13  8.829812E-13  8.829812E-13  8.829812E-13  8.829812E-13  8.829812E-13  8.829812E-13  8.829812E-13  8.829812E-13  8.829812E-13
 8.829813E-13  8.829813E-13  8.829812E-13  8.829812E-13  8.829812E-13  8.829812E-13  8.829812E-13  8.829812E-13  8.829812E-13  8.829812E-13
 8.829813E-13  8.829813E-13  8.829812E-13  8.829812E-13  8.829812E-13  8.829812E-13  8.829812E-13  8.829812E-13  8.829812E-13  8.829812E-13
 8.829813E-13  8.829813E-13  8.829813E-13  8.829813E-13  8.829813E-13  8.829813E-13  8.829813E-13  8.829813E-13  8.829813E-13  8.829812E-13


SCALARS Liquid_Pressure      float 1
LOOKUP_TABLE default
 7.792199E+06  7.574410E+06  7.541068E+06  7.536284E+06  7.535671E+06  7.535591E+06  7.535503E+06  7.534877E+06  7.530781E+06  7.510017E+06
 7.747044E+06  7.529257E+06  7.495915E+06  7.491132E+06  7.490519E+06  7.490439E+06  7.490350E+06  7.489724E+06  7.485629E+06  7.464865E+06
 7.701896E+06  7.484104E+06  7.450764E+06  7.445980E+06  7.445367E+06  7.445287E+06  7.445199E+06  7.444573E+06  7.440477E+06  7.419715E+06
 7.656754E+06  7.438953E+06  7.405614E+06  7.400830E+06  7.400217E+06  7.400137E+06  7.400049E+06  7.399423E+06  7.395328E+06  7.374565E+06
 7.611618E+06  7.393803E+06  7.360465E+06  7.355682E+06  7.355069E+06  7.354989E+06  7.354900E+06  7.354274E+06  7.350179E+06  7.329417E+06
 7.566488E+06  7.348655E+06  7.315317E+06  7.310534E+06  7.309921E+06  7.309841E+06  7.309753E+06  7.309127E+06  7.305031E+06  7.284270E+06
 7.521363E+06  7.303508E+06  7.270171E+06  7.265388E+06  7.264775E+06  7.264695E+06  7.264606E+06  7.263981E+06  7.259885E+06  7.239125E+06
 7.476233E+06  7.258362E+06  7.225026E+06  7.220243E+06  7.219630E+06  7.219550E+06  7.219461E+06  7.218836E+06  7.214740E+06  7.193980E+06
 7.431097E+06  7.213217E+06  7.179882E+06  7.175099E+06  7.174486E+06  7.174406E+06  7.174318E+06  7.173692E+06  7.169597E+06  7.148837E+06
 7.385956E+06  7.168074E+06  7.134739E+06  7.129956E+06  7.129344E+06  7.129264E+06  7.129175E+06  7.128549E+06  7.124455E+06  7.103695E+06
 7.340808E+06  7.122931E+06  7.089598E+06  7.084815E+06  7.084202E+06  7.084122E+06  7.084034E+06  7.083408E+06  7.079313E+06  7.058555E+06
 7.295654E+06  7.077790E+06  7.044458E+06  7.039675E+06  7.039062E+06  7.038982E+06  7.038894E+06  7.038268E+06  7.034174E+06  7.013415E+06
 7.250495E+06  7.032651E+06  6.999319E+06  6.994537E+06  6.993924E+06  6.993844E+06  6.993755E+06  6.993130E+06  6.989035E+06  6.968277E+06
 7.205329E+06  6.987512E+06  6.954181E+06  6.949399E+06  6.948786E+06  6.948706E+06  6.948618E+06  6.947992E+06  6.943898E+06  6.923141E+06
 7.160158E+06  6.942375E+06  6.909045E+06  6.904263E+06  6.903650E+06  6.903570E+06  6.903482E+06  6.902856E+06  6.898762E+06  6.878005E+06
 7.114993E+06  6.897239E+06  6.863910E+06  6.859128E+06  6.858515E+06  6.858435E+06  6.858347E+06  6.857721E+06  6.853627E+06  6.832871E+06
 7.069834E+06  6.852105E+06  6.818776E+06  6.813994E+06  6.813382E+06  6.813302E+06  6.813213E+06  6.812588E+06  6.808493E+06  6.787738E+06
 7.024681E+06  6.806971E+06  6.773644E+06  6.768862E+06  6.768249E+06  6.768169E+06  6.768081E+06  6.767455E+06  6.763361E+06  6.742606E+06
 6.979534E+06  6.761839E+06  6.728512E+06  6.723731E+06  6.723118E+06  6.723038E+06  6.722950E+06  6.722324E+06  6.718230E+06  6.697476E+06
 6.934392E+06  6.716708E+06  6.683382E+06  6.678601E+06  6.677988E+06  6.677908E+06  6.677820E+06  6.677194E+06  6.673100E+06  6.652347E+06


SCALARS Temperature          float 1
LOOKUP_TABLE default
 1.500168E+02  1.500039E+02  1.500019E+02  1.500016E+02  1.500016E+02  1.500016E+02  1.500016E+02  1.500016E+02  1.500013E+02  1.500001E+02
 1.500168E+02  1.500039E+02  1.500019E+02  1.500016E+02  1.500016E+02  1.500016E+02  1.500016E+02  1.500016E+02  1.500013E+02  1.500001E+02
 1.500168E+02  1.500039E+02  1.500019E+02  1.500016E+02  1.500016E+02  1.500016E+02  1.500016E+02  1.500016E+02  1.500013E+02  1.500001E+02
 1.500168E+02  1.500039E+02  1.500019E+02  1.500016E+02  1.500016E+02  1.500016E+02  1.500016E+02  1.500016E+02  1.500013E+02  1.500001E+02
 1.500168E+02  1.500039E+02  1.500019E+02  1.500017E+02  1.500016E+02  1.500016E+02  1.500016E+02  1.500016E+02  1.500013E+02  1.500001E+02
 1.500168E+02  1.500039E+02  1.500019E+02  1.500017E+02  1.500016E+02  1.500016E+02  1.500016E+02  1.500016E+02  1.500013E+02  1.500001E+02
 1.500168E+02  1.500039E+02  1.500019E+02  1.500017E+02  1.500016E+02  1.500016E+02  1.500016E+02  1.500016E+02  1.500013E+02  1.500001E+02
 1.500168E+02  1.500039E+02  1.500019E+02  1.500017E+02  1.500016E+02  1.500016E+02  1.500016E+02  1.500016E+02  1.500013E+02  1.500001E+02
 1.500168E+02  1.500039E+02  1.500019E+02  1.500017E+02  1.500016E+02  1.500016E+02  1.500016E+02  1.500016E+02  1.500013E+02  1.500001E+02
 1.500168E+02  1.500039E+02  1.500019E+02  1.500017E+02  1.500016E+02  1.500016E+02  1.500016E+02  1.500016E+02  1.500013E+02  1.500001E+02
 1.500168E+02  1.500039E+02  1.500019E+02  1.500017E+02  1.500016E+02  1.500016E+02  1.500016E+02  1.500016E+02  1.500013E+02  1.500001E+02
 1.500168E+02  1.500039E+02  1.500019E+02  1.500017E+02  1.500016E+02  1.500016E+02  1.500016E+02  1.500016E+02  1.500013E+02  1.500001E+02
 1.500168E+02  1.500039E+02  1.500019E+02  1.500017E+02  1.500016E+02  1.500016E+02  1.500016E+02  1.500016E+02  1.500013E+02  1.500001E+02
 1.500168E+02  1.500039E+02  1.500019E+02  1.500017E+02  1.500016E+02  1.500016E+02  1.500016E+02  1.500016E+02  1.500013E+02  1.500001E+02
 1.500168E+02  1.500039E+02  1.500019E+02  1.500017E+02  1.500016E+02  1.500016E+02  1.500016E+02  1.500016E+02  1.500013E+02  1.500001E+02
 1.500168E+02  1.500039E+02  1.500019E+02  1.500017E+02  1.500016E+02  1.500016E+02  1.500016E+02  1.500016E+02  1.500013E+02  1.500001E+02
 1.500168E+02  1.500039E+02  1.500019E+02  1.500017E+02  1.500016E+02  1.500016E+02  1.500016E+02  1.500016E+02  1.500013E+02  1.500001E+02
 1.500168E+02  1.500039E+02  1.500019E+02  1.500017E+02  1.500016E+02  1.500016E+02  1.500016E+02  1.500016E+02  1.500013E+02  1.500001E+02
 1.500168E+02  1.500039E+02  1.500019E+02  1.500017E+02  1.500016E+02  1.500016E+02  1.500016E+02  1.500016E+02  1.500013E+02  1.500001E+02
 1.500168E+02  1.500039E+02  1.500019E+02  1.500017E+02  1.500016E+02  1.500016E+02  1.500016E+02  1.500016E+02  1.500013E+02  1.500001E+02


SCALARS pH                   float 1
LOOKUP_TABLE default
 6.144112E+00  6.144092E+00  6.144089E+00  6.144088E+00  6.144088E+00  6.144088E+00  6.144088E+00  6.144088E+00  6.144088E+00  6.144086E+00
 6.144112E+00  6.144092E+00  6.144089E+00  6.144088E+00  6.144088E+00  6.144088E+00  6.144088E+00  6.144088E+00  6.144088E+00  6.144086E+00
 6.144112E+00  6.144092E+00  6.144089E+00  6.144088E+00  6.144088E+00  6.144088E+00  6.144088E+00  6.144088E+00  6.144088E+00  6.144086E+00
 6.144112E+00  6.144092E+00  6.144089E+00  6.144088E+00  6.144088E+00  6.144088E+00  6.144088E+00  6.144088E+00  6.144088E+00  6.144086E+00
 6.144112E+00  6.144092E+00  6.144089E+00  6.144088E+00  6.144088E+00  6.144088E+00  6.144088E+00  6.144088E+00  6.144088E+00  6.144086E+00
 6.144112E+00  6.144092E+00  6.144089E+00  6.144088E+00  6.144088E+00  6.144088E+00  6.144088E+00  6.144088E+00  6.144088E+00  6.144086E+00
 6.144109E+00  6.144092E+00  6.144089E+00  6.144088E+00  6.144088E+00  6.144088E+00  6.144088E+00  6.144088E+00  6.144088E+00  6.144086E+00
 6.144109E+00  6.144092E+00  6.144089E+00  6.144088E+00  6.144088E+00  6.144088E+00  6.144088E+00  6.144088E+00  6.144088E+00  6.144086E+00
 6.144109E+00  6.144092E+00  6.144089E+00  6.144088E+00  6.144088E+00  6.144088E+00  6.144088E+00  6.144088E+00  6.144088E+00  6.144086E+00
 6.144109E+00  6.144092E+00  6.144089E+00  6.144088E+00  6.144088E+00  6.144088E+00  6.144088E+00  6.144088E+00  6.144088E+00  6.144086E+00
 6.144109E+00  6.144092E+00  6.144089E+00  6.144088E+00  6.144088E+00  6.144088E+00  6.144088E+00  6.144088E+00  6.144088E+00  6.144086E+00
 6.144109E+00  6.144092E+00  6.144089E+00  6.144088E+00  6.144088E+00  6.144088E+00  6.144088E+00  6.144088E+00  6.144088E+00  6.144086E+00
 6.144109E+00  6.144092E+00  6.144089E+00  6.144088E+00  6.144088E+00  6.144088E+00  6.144088E+00  6.144088E+00  6.144088E+00  6.144086E+00
 6.144109E+00  6.144092E+00  6.144089E+00  6.144088E+00  6.144088E+00  6.144088E+00  6.144088E+00  6.144088E+00  6.144088E+00  6.144086E+00
 6.144112E+00  6.144092E+00  6.144089E+00  6.144088E+00  6.144088E+00  6.144088E+00  6.144088E+00  6.144088E+00  6.144088E+00  6.144086E+00
 6.144112E+00  6.144092E+00  6.144089E+00  6.144088E+00  6.144088E+00  6.144088E+00  6.144088E+00  6.144088E+00  6.144088E+00  6.144086E+00
 6.144112E+00  6.144092E+00  6.144089E+00  6.144088E+00  6.144088E+00  6.144088E+00  6.144088E+00  6.144088E+00  6.144088E+00  6.144086E+00
 6.144112E+00  6.144092E+00  6.144089E+00  6.144088E+00  6.144088E+00  6.144088E+00  6.144088E+00  6.144088E+00  6.144088E+00  6.144086E+00
 6.144112E+00  6.144092E+00  6.144089E+00  6.144088E+00  6.144088E+00  6.144088E+00  6.144088E+00  6.144088E+00  6.144088E+00  6.144086E+00
 6.144112E+00  6.144092E+00  6.144089E+00  6.144088E+00  6.144088E+00  6.144088E+00  6.144088E+00  6.144088E+00  6.144088E+00  6.144086E+00


SCALARS Total_H+             float 1
LOOKUP_TABLE default
-3.060764E-03 -3.061222E-03 -3.061292E-03 -3.061302E-03 -3.061303E-03 -3.061303E-03 -3.061303E-03 -3.061305E-03 -3.061313E-03 -3.061357E-03
-3.060763E-03 -3.061222E-03 -3.061292E-03 -3.061302E-03 -3.061303E-03 -3.061303E-03 -3.061303E-03 -3.061305E-03 -3.061313E-03 -3.061357E-03
-3.060763E-03 -3.061222E-03 -3.061292E-03 -3.061302E-03 -3.061303E-03 -3.061303E-03 -3.061303E-03 -3.061304E-03 -3.061313E-03 -3.061357E-03
-3.060763E-03 -3.061222E-03 -3.061292E-03 -3.061302E-03 -3.061303E-03 -3.061303E-03 -3.061303E-03 -3.061304E-03 -3.061313E-03 -3.061357E-03
-3.060763E-03 -3.061222E-03 -3.061292E-03 -3.061301E-03 -3.061303E-03 -3.061303E-03 -3.061303E-03 -3.061304E-03 -3.061313E-03 -3.061357E-03
-3.060763E-03 -3.061222E-03 -3.061291E-03 -3.061301E-03 -3.061303E-03 -3.061303E-03 -3.061303E-03 -3.061304E-03 -3.061313E-03 -3.061356E-03
-3.060739E-03 -3.061222E-03 -3.061291E-03 -3.061301E-03 -3.061303E-03 -3.061303E-03 -3.061303E-03 -3.061304E-03 -3.061313E-03 -3.061356E-03
-3.060739E-03 -3.061222E-03 -3.061291E-03 -3.061301E-03 -3.061303E-03 -3.061303E-03 -3.061303E-03 -3.061304E-03 -3.061313E-03 -3.061356E-03
-3.060739E-03 -3.061222E-03 -3.061291E-03 -3.061301E-03 -3.061302E-03 -3.061303E-03 -3.061303E-03 -3.061304E-03 -3.061313E-03 -3.061356E-03
-3.060739E-03 -3.061221E-03 -3.061291E-03 -3.061301E-03 -3.061302E-03 -3.061303E-03 -3.061303E-03 -3.061304E-03 -3.061313E-03 -3.061356E-03
-3.060739E-03 -3.061221E-03 -3.061291E-03 -3.061301E-03 -3.061302E-03 -3.061302E-03 -3.061303E-03 -3.061304E-03 -3.061312E-03 -3.061356E-03
-3.060739E-03 -3.061221E-03 -3.061291E-03 -3.061301E-03 -3.061302E-03 -3.061302E-03 -3.061303E-03 -3.061304E-03 -3.061312E-03 -3.061356E-03
-3.060738E-03 -3.061221E-03 -3.061291E-03 -3.061301E-03 -3.061302E-03 -3.061302E-03 -3.061303E-03 -3.061304E-03 -3.061312E-03 -3.061356E-03
-3.060738E-03 -3.061221E-03 -3.061291E-03 -3.061301E-03 -3.061302E-03 -3.061302E-03 -3.061302E-03 -3.061304E-03 -3.061312E-03 -3.061356E-03
-3.060761E-03 -3.061221E-03 -3.061291E-03 -3.061301E-03 -3.061302E-03 -3.061302E-03 -3.061302E-03 -3.061304E-03 -3.061312E-03 -3.061356E-03
-3.060761E-03 -3.061221E-03 -3.061291E-03 -3.061301E-03 -3.061302E-03 -3.061302E-03 -3.061302E-03 -3.061304E-03 -3.061312E-03 -3.061356E-03
-3.060761E-03 -3.061221E-03 -3.061291E-03 -3.061301E-03 -3.061302E-03 -3.061302E-03 -3.061302E-03 -3.061304E-03 -3.061312E-03 -3.061356E-03
-3.060761E-03 -3.061221E-03 -3.061291E-03 -3.061301E-03 -3.061302E-03 -3.061302E-03 -3.061302E-03 -3.061303E-03 -3.061312E-03 -3.061356E-03
-3.060761E-03 -3.061221E-03 -3.061291E-03 -3.061301E-03 -3.061302E-03 -3.061302E-03 -3.061302E-03 -3.061303E-03 -3.061312E-03 -3.061356E-03
-3.060761E-03 -3.061221E-03 -3.061291E-03 -3.061300E-03 -3.061302E-03 -3.061302E-03 -3.061302E-03 -3.061303E-03 -3.061312E-03 -3.061356E-03


SCALARS Total_SiO2(aq)       float 1
LOOKUP_TABLE default
 1.039890E-02  1.039787E-02  1.039773E-02  1.039771E-02  1.039770E-02  1.039770E-02  1.039770E-02  1.039770E-02  1.039768E-02  1.039759E-02
 1.039890E-02  1.039787E-02  1.039773E-02  1.039771E-02  1.039770E-02  1.039770E-02  1.039770E-02  1.039770E-02  1.039768E-02  1.039759E-02
 1.039890E-02  1.039787E-02  1.039773E-02  1.039771E-02  1.039770E-02  1.039770E-02  1.039770E-02  1.039770E-02  1.039768E-02  1.039759E-02
 1.039890E-02  1.039787E-02  1.039772E-02  1.039770E-02  1.039770E-02  1.039770E-02  1.039770E-02  1.039770E-02  1.039768E-02  1.039759E-02
 1.039890E-02  1.039787E-02  1.039772E-02  1.039770E-02  1.039770E-02  1.039770E-02  1.039770E-02  1.039770E-02  1.039768E-02  1.039759E-02
 1.039890E-02  1.039787E-02  1.039772E-02  1.039770E-02  1.039770E-02  1.039770E-02  1.039770E-02  1.039770E-02  1.039768E-02  1.039759E-02
 1.039913E-02  1.039787E-02  1.039772E-02  1.039770E-02  1.039770E-02  1.039770E-02  1.039770E-02  1.039770E-02  1.039768E-02  1.039759E-02
 1.039913E-02  1.039787E-02  1.039772E-02  1.039770E-02  1.039770E-02  1.039770E-02  1.039770E-02  1.039770E-02  1.039768E-02  1.039759E-02
 1.039913E-02  1.039787E-02  1.039772E-02  1.039770E-02  1.039770E-02  1.039770E-02  1.039770E-02  1.039770E-02  1.039768E-02  1.039758E-02
 1.039913E-02  1.039787E-02  1.039772E-02  1.039770E-02  1.039770E-02  1.039770E-02  1.039770E-02  1.039769E-02  1.039768E-02  1.039758E-02
 1.039913E-02  1.039787E-02  1.039772E-02  1.039770E-02  1.039770E-02  1.039770E-02  1.039770E-02  1.039769E-02  1.039768E-02  1.039758E-02
 1.039912E-02  1.039786E-02  1.039772E-02  1.039770E-02  1.039770E-02  1.039770E-02  1.039770E-02  1.039769E-02  1.039768E-02  1.039758E-02
 1.039912E-02  1.039786E-02  1.039772E-02  1.039770E-02  1.039770E-02  1.039770E-02  1.039770E-02  1.039769E-02  1.039768E-02  1.039758E-02
 1.039912E-02  1.039786E-02  1.039772E-02  1.039770E-02  1.039770E-02  1.039769E-02  1.039769E-02  1.039769E-02  1.039768E-02  1.039758E-02
 1.039889E-02  1.039786E-02  1.039772E-02  1.039770E-02  1.039769E-02  1.039769E-02  1.039769E-02  1.039769E-02  1.039767E-02  1.039758E-02
 1.039889E-02  1.039786E-02  1.039772E-02  1.039770E-02  1.039769E-02  1.039769E-02  1.039769E-02  1.039769E-02  1.039767E-02  1.039758E-02
 1.039889E-02  1.039786E-02  1.039771E-02  1.039770E-02  1.039769E-02  1.039769E-02  1.039769E-02  1.039769E-02  1.039767E-02  1.039758E-02
 1.039889E-02  1.039786E-02  1.039771E-02  1.039769E-02  1.039769E-02  1.039769E-02  1.039769E-02  1.039769E-02  1.039767E-02  1.039758E-02
 1.039889E-02  1.039786E-02  1.039771E-02  1.039769E-02  1.039769E-02  1.039769E-02  1.039769E-02  1.039769E-02  1.039767E-02  1.039758E-02