# vtk DataFile Version 2.0
PFLOTRAN output
ASCII
DATASET UNSTRUCTURED_GRID
POINTS         4242 float
 0.000000E+00  0.000000E+00  0.000000E+00
 2.000000E+02  0.000000E+00  0.000000E+00
 4.000000E+02  0.000000E+00  0.000000E+00
 6.000000E+02  0.000000E+00  0.000000E+00
 8.000000E+02  0.000000E+00  0.000000E+00
 1.000000E+03  0.000000E+00  0.000000E+00
 1.200000E+03  0.000000E+00  0.000000E+00
 1.400000E+03  0.000000E+00  0.000000E+00
 1.600000E+03  0.000000E+00  0.000000E+00
 1.800000E+03  0.000000E+00  0.000000E+00
 2.000000E+03  0.000000E+00  0.000000E+00
 2.200000E+03  0.000000E+00  0.000000E+00
 2.400000E+03  0.000000E+00  0.000000E+00
 2.600000E+03  0.000000E+00  0.000000E+00
 2.800000E+03  0.000000E+00  0.000000E+00
 3.000000E+03  0.000000E+00  0.000000E+00
 3.200000E+03  0.000000E+00  0.000000E+00
 3.400000E+03  0.000000E+00  0.000000E+00
 3.600000E+03  0.000000E+00  0.000000E+00
 3.800000E+03  0.000000E+00  0.000000E+00
 4.000000E+03  0.000000E+00  0.000000E+00
 4.200000E+03  0.000000E+00  0.000000E+00
 4.400000E+03  0.000000E+00  0.000000E+00
 4.600000E+03  0.000000E+00  0.000000E+00
 4.800000E+03  0.000000E+00  0.000000E+00
 5.000000E+03  0.000000E+00  0.000000E+00
 5.200000E+03  0.000000E+00  0.000000E+00
 5.400000E+03  0.000000E+00  0.000000E+00
 5.600000E+03  0.000000E+00  0.000000E+00
 5.800000E+03  0.000000E+00  0.000000E+00
 6.000000E+03  0.000000E+00  0.000000E+00
 6.200000E+03  0.000000E+00  0.000000E+00
 6.400000E+03  0.000000E+00  0.000000E+00
 6.600000E+03  0.000000E+00  0.000000E+00
 6.800000E+03  0.000000E+00  0.000000E+00
 7.000000E+03  0.000000E+00  0.000000E+00
 7.200000E+03  0.000000E+00  0.000000E+00
 7.400000E+03  0.000000E+00  0.000000E+00
 7.600000E+03  0.000000E+00  0.000000E+00
 7.800000E+03  0.000000E+00  0.000000E+00
 8.000000E+03  0.000000E+00  0.000000E+00
 8.200000E+03  0.000000E+00  0.000000E+00
 8.400000E+03  0.000000E+00  0.000000E+00
 8.600000E+03  0.000000E+00  0.000000E+00
 8.800000E+03  0.000000E+00  0.000000E+00
 9.000000E+03  0.000000E+00  0.000000E+00
 9.200000E+03  0.000000E+00  0.000000E+00
 9.400000E+03  0.000000E+00  0.000000E+00
 9.600000E+03  0.000000E+00  0.000000E+00
 9.800000E+03  0.000000E+00  0.000000E+00
 1.000000E+04  0.000000E+00  0.000000E+00
 1.020000E+04  0.000000E+00  0.000000E+00
 1.040000E+04  0.000000E+00  0.000000E+00
 1.060000E+04  0.000000E+00  0.000000E+00
 1.080000E+04  0.000000E+00  0.000000E+00
 1.100000E+04  0.000000E+00  0.000000E+00
 1.120000E+04  0.000000E+00  0.000000E+00
 1.140000E+04  0.000000E+00  0.000000E+00
 1.160000E+04  0.000000E+00  0.000000E+00
 1.180000E+04  0.000000E+00  0.000000E+00
 1.200000E+04  0.000000E+00  0.000000E+00
 1.220000E+04  0.000000E+00  0.000000E+00
 1.240000E+04  0.000000E+00  0.000000E+00
 1.260000E+04  0.000000E+00  0.000000E+00
 1.280000E+04  0.000000E+00  0.000000E+00
 1.300000E+04  0.000000E+00  0.000000E+00
 1.320000E+04  0.000000E+00  0.000000E+00
 1.340000E+04  0.000000E+00  0.000000E+00
 1.360000E+04  0.000000E+00  0.000000E+00
 1.380000E+04  0.000000E+00  0.000000E+00
 1.400000E+04  0.000000E+00  0.000000E+00
 1.420000E+04  0.000000E+00  0.000000E+00
 1.440000E+04  0.000000E+00  0.000000E+00
 1.460000E+04  0.000000E+00  0.000000E+00
 1.480000E+04  0.000000E+00  0.000000E+00
 1.500000E+04  0.000000E+00  0.000000E+00
 1.520000E+04  0.000000E+00  0.000000E+00
 1.540000E+04  0.000000E+00  0.000000E+00
 1.560000E+04  0.000000E+00  0.000000E+00
 1.580000E+04  0.000000E+00  0.000000E+00
 1.600000E+04  0.000000E+00  0.000000E+00
 1.620000E+04  0.000000E+00  0.000000E+00
 1.640000E+04  0.000000E+00  0.000000E+00
 1.660000E+04  0.000000E+00  0.000000E+00
 1.680000E+04  0.000000E+00  0.000000E+00
 1.700000E+04  0.000000E+00  0.000000E+00
 1.720000E+04  0.000000E+00  0.000000E+00
 1.740000E+04  0.000000E+00  0.000000E+00
 1.760000E+04  0.000000E+00  0.000000E+00
 1.780000E+04  0.000000E+00  0.000000E+00
 1.800000E+04  0.000000E+00  0.000000E+00
 1.820000E+04  0.000000E+00  0.000000E+00
 1.840000E+04  0.000000E+00  0.000000E+00
 1.860000E+04  0.000000E+00  0.000000E+00
 1.880000E+04  0.000000E+00  0.000000E+00
 1.900000E+04  0.000000E+00  0.000000E+00
 1.920000E+04  0.000000E+00  0.000000E+00
 1.940000E+04  0.000000E+00  0.000000E+00
 1.960000E+04  0.000000E+00  0.000000E+00
 1.980000E+04  0.000000E+00  0.000000E+00
 2.000000E+04  0.000000E+00  0.000000E+00
 0.000000E+00  1.000000E+00  0.000000E+00
 2.000000E+02  1.000000E+00  0.000000E+00
 4.000000E+02  1.000000E+00  0.000000E+00
 6.000000E+02  1.000000E+00  0.000000E+00
 8.000000E+02  1.000000E+00  0.000000E+00
 1.000000E+03  1.000000E+00  0.000000E+00
 1.200000E+03  1.000000E+00  0.000000E+00
 1.400000E+03  1.000000E+00  0.000000E+00
 1.600000E+03  1.000000E+00  0.000000E+00
 1.800000E+03  1.000000E+00  0.000000E+00
 2.000000E+03  1.000000E+00  0.000000E+00
 2.200000E+03  1.000000E+00  0.000000E+00
 2.400000E+03  1.000000E+00  0.000000E+00
 2.600000E+03  1.000000E+00  0.000000E+00
 2.800000E+03  1.000000E+00  0.000000E+00
 3.000000E+03  1.000000E+00  0.000000E+00
 3.200000E+03  1.000000E+00  0.000000E+00
 3.400000E+03  1.000000E+00  0.000000E+00
 3.600000E+03  1.000000E+00  0.000000E+00
 3.800000E+03  1.000000E+00  0.000000E+00
 4.000000E+03  1.000000E+00  0.000000E+00
 4.200000E+03  1.000000E+00  0.000000E+00
 4.400000E+03  1.000000E+00  0.000000E+00
 4.600000E+03  1.000000E+00  0.000000E+00
 4.800000E+03  1.000000E+00  0.000000E+00
 5.000000E+03  1.000000E+00  0.000000E+00
 5.200000E+03  1.000000E+00  0.000000E+00
 5.400000E+03  1.000000E+00  0.000000E+00
 5.600000E+03  1.000000E+00  0.000000E+00
 5.800000E+03  1.000000E+00  0.000000E+00
 6.000000E+03  1.000000E+00  0.000000E+00
 6.200000E+03  1.000000E+00  0.000000E+00
 6.400000E+03  1.000000E+00  0.000000E+00
 6.600000E+03  1.000000E+00  0.000000E+00
 6.800000E+03  1.000000E+00  0.000000E+00
 7.000000E+03  1.000000E+00  0.000000E+00
 7.200000E+03  1.000000E+00  0.000000E+00
 7.400000E+03  1.000000E+00  0.000000E+00
 7.600000E+03  1.000000E+00  0.000000E+00
 7.800000E+03  1.000000E+00  0.000000E+00
 8.000000E+03  1.000000E+00  0.000000E+00
 8.200000E+03  1.000000E+00  0.000000E+00
 8.400000E+03  1.000000E+00  0.000000E+00
 8.600000E+03  1.000000E+00  0.000000E+00
 8.800000E+03  1.000000E+00  0.000000E+00
 9.000000E+03  1.000000E+00  0.000000E+00
 9.200000E+03  1.000000E+00  0.000000E+00
 9.400000E+03  1.000000E+00  0.000000E+00
 9.600000E+03  1.000000E+00  0.000000E+00
 9.800000E+03  1.000000E+00  0.000000E+00
 1.000000E+04  1.000000E+00  0.000000E+00
 1.020000E+04  1.000000E+00  0.000000E+00
 1.040000E+04  1.000000E+00  0.000000E+00
 1.060000E+04  1.000000E+00  0.000000E+00
 1.080000E+04  1.000000E+00  0.000000E+00
 1.100000E+04  1.000000E+00  0.000000E+00
 1.120000E+04  1.000000E+00  0.000000E+00
 1.140000E+04  1.000000E+00  0.000000E+00
 1.160000E+04  1.000000E+00  0.000000E+00
 1.180000E+04  1.000000E+00  0.000000E+00
 1.200000E+04  1.000000E+00  0.000000E+00
 1.220000E+04  1.000000E+00  0.000000E+00
 1.240000E+04  1.000000E+00  0.000000E+00
 1.260000E+04  1.000000E+00  0.000000E+00
 1.280000E+04  1.000000E+00  0.000000E+00
 1.300000E+04  1.000000E+00  0.000000E+00
 1.320000E+04  1.000000E+00  0.000000E+00
 1.340000E+04  1.000000E+00  0.000000E+00
 1.360000E+04  1.000000E+00  0.000000E+00
 1.380000E+04  1.000000E+00  0.000000E+00
 1.400000E+04  1.000000E+00  0.000000E+00
 1.420000E+04  1.000000E+00  0.000000E+00
 1.440000E+04  1.000000E+00  0.000000E+00
 1.460000E+04  1.000000E+00  0.000000E+00
 1.480000E+04  1.000000E+00  0.000000E+00
 1.500000E+04  1.000000E+00  0.000000E+00
 1.520000E+04  1.000000E+00  0.000000E+00
 1.540000E+04  1.000000E+00  0.000000E+00
 1.560000E+04  1.000000E+00  0.000000E+00
 1.580000E+04  1.000000E+00  0.000000E+00
 1.600000E+04  1.000000E+00  0.000000E+00
 1.620000E+04  1.000000E+00  0.000000E+00
 1.640000E+04  1.000000E+00  0.000000E+00
 1.660000E+04  1.000000E+00  0.000000E+00
 1.680000E+04  1.000000E+00  0.000000E+00
 1.700000E+04  1.000000E+00  0.000000E+00
 1.720000E+04  1.000000E+00  0.000000E+00
 1.740000E+04  1.000000E+00  0.000000E+00
 1.760000E+04  1.000000E+00  0.000000E+00
 1.780000E+04  1.000000E+00  0.000000E+00
 1.800000E+04  1.000000E+00  0.000000E+00
 1.820000E+04  1.000000E+00  0.000000E+00
 1.840000E+04  1.000000E+00  0.000000E+00
 1.860000E+04  1.000000E+00  0.000000E+00
 1.880000E+04  1.000000E+00  0.000000E+00
 1.900000E+04  1.000000E+00  0.000000E+00
 1.920000E+04  1.000000E+00  0.000000E+00
 1.940000E+04  1.000000E+00  0.000000E+00
 1.960000E+04  1.000000E+00  0.000000E+00
 1.980000E+04  1.000000E+00  0.000000E+00
 2.000000E+04  1.000000E+00  0.000000E+00
 0.000000E+00  0.000000E+00  1.500000E+01
 2.000000E+02  0.000000E+00  1.500000E+01
 4.000000E+02  0.000000E+00  1.500000E+01
 6.000000E+02  0.000000E+00  1.500000E+01
 8.000000E+02  0.000000E+00  1.500000E+01
 1.000000E+03  0.000000E+00  1.500000E+01
 1.200000E+03  0.000000E+00  1.500000E+01
 1.400000E+03  0.000000E+00  1.500000E+01
 1.600000E+03  0.000000E+00  1.500000E+01
 1.800000E+03  0.000000E+00  1.500000E+01
 2.000000E+03  0.000000E+00  1.500000E+01
 2.200000E+03  0.000000E+00  1.500000E+01
 2.400000E+03  0.000000E+00  1.500000E+01
 2.600000E+03  0.000000E+00  1.500000E+01
 2.800000E+03  0.000000E+00  1.500000E+01
 3.000000E+03  0.000000E+00  1.500000E+01
 3.200000E+03  0.000000E+00  1.500000E+01
 3.400000E+03  0.000000E+00  1.500000E+01
 3.600000E+03  0.000000E+00  1.500000E+01
 3.800000E+03  0.000000E+00  1.500000E+01
 4.000000E+03  0.000000E+00  1.500000E+01
 4.200000E+03  0.000000E+00  1.500000E+01
 4.400000E+03  0.000000E+00  1.500000E+01
 4.600000E+03  0.000000E+00  1.500000E+01
 4.800000E+03  0.000000E+00  1.500000E+01
 5.000000E+03  0.000000E+00  1.500000E+01
 5.200000E+03  0.000000E+00  1.500000E+01
 5.400000E+03  0.000000E+00  1.500000E+01
 5.600000E+03  0.000000E+00  1.500000E+01
 5.800000E+03  0.000000E+00  1.500000E+01
 6.000000E+03  0.000000E+00  1.500000E+01
 6.200000E+03  0.000000E+00  1.500000E+01
 6.400000E+03  0.000000E+00  1.500000E+01
[...]
CELL_DATA     2000
SCALARS Vlx                  float 1
LOOKUP_TABLE default
 3.760208E+01  3.669509E+01  3.212664E+01  2.600685E+01  2.108207E+01  1.748296E+01  1.485726E+01  1.289389E+01  1.138185E+01  1.018516E+01
 9.215564E+00  8.414357E+00  7.741275E+00  7.167887E+00  6.673580E+00  6.243052E+00  5.864708E+00  5.529601E+00  5.230722E+00  4.962497E+00
 4.720439E+00  4.500898E+00  4.300871E+00  4.117868E+00  3.949803E+00  3.794920E+00  3.651726E+00  3.518946E+00  3.395484E+00  3.280392E+00
 3.172847E+00  3.072130E+00  2.977611E+00  2.888735E+00  2.805011E+00  2.726004E+00  2.651326E+00  2.580631E+00  2.513609E+00  2.449980E+00
 2.389493E+00  2.331921E+00  2.277059E+00  2.224719E+00  2.174731E+00  2.126941E+00  2.081206E+00  2.037397E+00  1.995394E+00  1.955089E+00
 1.916379E+00  1.879174E+00  1.843385E+00  1.808934E+00  1.775748E+00  1.743758E+00  1.712900E+00  1.683115E+00  1.654349E+00  1.626550E+00
 1.599670E+00  1.573664E+00  1.548490E+00  1.524109E+00  1.500484E+00  1.477580E+00  1.455366E+00  1.433809E+00  1.412882E+00  1.392558E+00
 1.372810E+00  1.353614E+00  1.334948E+00  1.316790E+00  1.299119E+00  1.281917E+00  1.265164E+00  1.248843E+00  1.232939E+00  1.217434E+00
 1.202315E+00  1.187567E+00  1.173177E+00  1.159131E+00  1.145418E+00  1.132025E+00  1.118942E+00  1.106158E+00  1.093664E+00  1.081448E+00
 1.069503E+00  1.057818E+00  1.046387E+00  1.035201E+00  1.024253E+00  1.013537E+00  1.003047E+00  9.927818E-01  9.827447E-01  9.729729E-01
 4.052390E+01  3.830739E+01  3.266708E+01  2.615930E+01  2.112399E+01  1.749510E+01  1.486137E+01  1.289574E+01  1.138302E+01  1.018607E+01
 9.216353E+00  8.415067E+00  7.741925E+00  7.168488E+00  6.674139E+00  6.243575E+00  5.865199E+00  5.530064E+00  5.231160E+00  4.962912E+00
 4.720834E+00  4.501275E+00  4.301231E+00  4.118213E+00  3.950134E+00  3.795238E+00  3.652032E+00  3.519241E+00  3.395768E+00  3.280666E+00
 3.173112E+00  3.072387E+00  2.977860E+00  2.888977E+00  2.805246E+00  2.726232E+00  2.651548E+00  2.580847E+00  2.513819E+00  2.450185E+00
 2.389693E+00  2.332116E+00  2.277249E+00  2.224905E+00  2.174913E+00  2.127119E+00  2.081380E+00  2.037567E+00  1.995561E+00  1.955252E+00
 1.916540E+00  1.879331E+00  1.843539E+00  1.809086E+00  1.775897E+00  1.743904E+00  1.713043E+00  1.683256E+00  1.654488E+00  1.626686E+00
 1.599803E+00  1.573795E+00  1.548619E+00  1.524236E+00  1.500609E+00  1.477704E+00  1.455487E+00  1.433929E+00  1.413001E+00  1.392674E+00
 1.372924E+00  1.353727E+00  1.335060E+00  1.316900E+00  1.299228E+00  1.282024E+00  1.265270E+00  1.248948E+00  1.233042E+00  1.217536E+00
 1.202416E+00  1.187667E+00  1.173275E+00  1.159228E+00  1.145513E+00  1.132120E+00  1.119036E+00  1.106251E+00  1.093755E+00  1.081538E+00
 1.069592E+00  1.057907E+00  1.046475E+00  1.035288E+00  1.024339E+00  1.013622E+00  1.003131E+00  9.928638E-01  9.828234E-01  9.730255E-01
 4.673350E+01  4.164429E+01  3.373044E+01  2.645140E+01  2.120253E+01  1.751692E+01  1.486805E+01  1.289829E+01  1.138437E+01  1.018703E+01
 9.217156E+00  8.415781E+00  7.742576E+00  7.169089E+00  6.674698E+00  6.244098E+00  5.865690E+00  5.530527E+00  5.231598E+00  4.963327E+00
 4.721229E+00  4.501651E+00  4.301591E+00  4.118557E+00  3.950464E+00  3.795555E+00  3.652337E+00  3.519535E+00  3.396052E+00  3.280941E+00
 3.173378E+00  3.072644E+00  2.978109E+00  2.889218E+00  2.805481E+00  2.726460E+00  2.651770E+00  2.581063E+00  2.514029E+00  2.450390E+00
 2.389893E+00  2.332311E+00  2.277440E+00  2.225091E+00  2.175095E+00  2.127296E+00  2.081554E+00  2.037737E+00  1.995728E+00  1.955416E+00
 1.916700E+00  1.879488E+00  1.843693E+00  1.809237E+00  1.776045E+00  1.744050E+00  1.713186E+00  1.683397E+00  1.654626E+00  1.626822E+00
 1.599937E+00  1.573927E+00  1.548749E+00  1.524364E+00  1.500735E+00  1.477828E+00  1.455609E+00  1.434049E+00  1.413119E+00  1.392791E+00
 1.373039E+00  1.353840E+00  1.335171E+00  1.317010E+00  1.299336E+00  1.282131E+00  1.265375E+00  1.249052E+00  1.233145E+00  1.217638E+00
 1.202516E+00  1.187766E+00  1.173373E+00  1.159325E+00  1.145609E+00  1.132214E+00  1.119129E+00  1.106343E+00  1.093846E+00  1.081629E+00
 1.069681E+00  1.057995E+00  1.046562E+00  1.035374E+00  1.024424E+00  1.013706E+00  1.003214E+00  9.929446E-01  9.828997E-01  9.730823E-01
 5.702052E+01  4.694322E+01  3.527997E+01  2.686138E+01  2.131085E+01  1.754648E+01  1.487679E+01  1.290139E+01  1.138588E+01  1.018804E+01
 9.217969E+00  8.416497E+00  7.743227E+00  7.169690E+00  6.675257E+00  6.244620E+00  5.866181E+00  5.530990E+00  5.232036E+00  4.963743E+00
 4.721624E+00  4.502028E+00  4.301951E+00  4.118902E+00  3.950795E+00  3.795873E+00  3.652643E+00  3.519829E+00  3.396336E+00  3.281215E+00
 3.173643E+00  3.072901E+00  2.978358E+00  2.889460E+00  2.805715E+00  2.726688E+00  2.651992E+00  2.581279E+00  2.514240E+00  2.450595E+00
 2.390093E+00  2.332506E+00  2.277630E+00  2.225277E+00  2.175277E+00  2.127474E+00  2.081728E+00  2.037908E+00  1.995895E+00  1.955579E+00
 1.916860E+00  1.879645E+00  1.843848E+00  1.809388E+00  1.776194E+00  1.744195E+00  1.713330E+00  1.683538E+00  1.654764E+00  1.626958E+00
 1.600071E+00  1.574058E+00  1.548878E+00  1.524491E+00  1.500860E+00  1.477951E+00  1.455731E+00  1.434169E+00  1.413237E+00  1.392907E+00
 1.373154E+00  1.353953E+00  1.335283E+00  1.317120E+00  1.299445E+00  1.282238E+00  1.265481E+00  1.249157E+00  1.233248E+00  1.217740E+00
 1.202617E+00  1.187865E+00  1.173471E+00  1.159422E+00  1.145705E+00  1.132309E+00  1.119223E+00  1.106436E+00  1.093938E+00  1.081719E+00
 1.069771E+00  1.058084E+00  1.046650E+00  1.035461E+00  1.024510E+00  1.013790E+00  1.003296E+00  9.930246E-01  9.829745E-01  9.731424E-01
 7.271980E+01  5.458449E+01  3.724359E+01  2.735607E+01  2.143912E+01  1.758110E+01  1.488686E+01  1.290485E+01  1.138748E+01  1.018907E+01
 9.218790E+00  8.417215E+00  7.743879E+00  7.170291E+00  6.675816E+00  6.245143E+00  5.866671E+00  5.531453E+00  5.232473E+00  4.964158E+00
 4.722019E+00  4.502404E+00  4.302311E+00  4.119246E+00  3.951125E+00  3.796190E+00  3.652948E+00  3.520124E+00  3.396620E+00  3.281489E+00
 3.173908E+00  3.073158E+00  2.978607E+00  2.889701E+00  2.805950E+00  2.726916E+00  2.652213E+00  2.581495E+00  2.514450E+00  2.450799E+00
 2.390292E+00  2.332701E+00  2.277820E+00  2.225463E+00  2.175458E+00  2.127652E+00  2.081902E+00  2.038078E+00  1.996061E+00  1.955742E+00
 1.917020E+00  1.879802E+00  1.844002E+00  1.809539E+00  1.776342E+00  1.744341E+00  1.713473E+00  1.683678E+00  1.654902E+00  1.627094E+00
 1.600205E+00  1.574190E+00  1.549008E+00  1.524618E+00  1.500986E+00  1.478075E+00  1.455852E+00  1.434289E+00  1.413355E+00  1.393023E+00
 1.373269E+00  1.354067E+00  1.335394E+00  1.317230E+00  1.299553E+00  1.282345E+00  1.265587E+00  1.249261E+00  1.233351E+00  1.217842E+00
 1.202717E+00  1.187964E+00  1.173569E+00  1.159518E+00  1.145801E+00  1.132404E+00  1.119316E+00  1.106528E+00  1.094029E+00  1.081810E+00
 1.069860E+00  1.058172E+00  1.046737E+00  1.035547E+00  1.024595E+00  1.013874E+00  1.003378E+00  9.931039E-01  9.830485E-01  9.732049E-01
 9.591801E+01  6.512167E+01  3.949029E+01  2.789108E+01  2.157533E+01  1.761757E+01  1.489740E+01  1.290843E+01  1.138911E+01  1.019011E+01
 9.219614E+00  8.417934E+00  7.744531E+00  7.170892E+00  6.676375E+00  6.245665E+00  5.867162E+00  5.531915E+00  5.232910E+00  4.964573E+00
 4.722413E+00  4.502780E+00  4.302670E+00  4.119590E+00  3.951455E+00  3.796507E+00  3.653253E+00  3.520418E+00  3.396904E+00  3.281764E+00
 3.174174E+00  3.073415E+00  2.978856E+00  2.889943E+00  2.806184E+00  2.727144E+00  2.652435E+00  2.581710E+00  2.514660E+00  2.451004E+00
 2.390492E+00  2.332896E+00  2.278011E+00  2.225649E+00  2.175640E+00  2.127830E+00  2.082076E+00  2.038248E+00  1.996228E+00  1.955906E+00
 1.917180E+00  1.879959E+00  1.844156E+00  1.809691E+00  1.776490E+00  1.744487E+00  1.713616E+00  1.683819E+00  1.655041E+00  1.627230E+00
 1.600338E+00  1.574321E+00  1.549137E+00  1.524746E+00  1.501111E+00  1.478198E+00  1.455974E+00  1.434409E+00  1.413473E+00  1.393140E+00
 1.373383E+00  1.354180E+00  1.335506E+00  1.317340E+00  1.299662E+00  1.282452E+00  1.265693E+00  1.249365E+00  1.233454E+00  1.217943E+00
 1.202818E+00  1.188064E+00  1.173667E+00  1.159615E+00  1.145896E+00  1.132498E+00  1.119410E+00  1.106621E+00  1.094121E+00  1.081900E+00
 1.069949E+00  1.058260E+00  1.046824E+00  1.035633E+00  1.024680E+00  1.013957E+00  1.003460E+00  9.931825E-01  9.831219E-01  9.732691E-01
 1.296586E+02  7.928401E+01  4.179174E+01  2.841261E+01  2.170619E+01  1.765246E+01  1.490750E+01  1.291189E+01  1.139071E+01  1.019114E+01
 9.220434E+00  8.418652E+00  7.745183E+00  7.171493E+00  6.676933E+00  6.246187E+00  5.867652E+00  5.532377E+00  5.233348E+00  4.964987E+00
 4.722808E+00  4.503157E+00  4.303029E+00  4.119934E+00  3.951785E+00  3.796824E+00  3.653558E+00  3.520712E+00  3.397187E+00  3.282038E+00
 3.174439E+00  3.073671E+00  2.979105E+00  2.890184E+00  2.806418E+00  2.727372E+00  2.652656E+00  2.581926E+00  2.514870E+00  2.451209E+00
 2.390691E+00  2.333091E+00  2.278201E+00  2.225834E+00  2.175822E+00  2.128007E+00  2.082250E+00  2.038418E+00  1.996395E+00  1.956069E+00
 1.917340E+00  1.880116E+00  1.844309E+00  1.809842E+00  1.776639E+00  1.744632E+00  1.713759E+00  1.683959E+00  1.655179E+00  1.627366E+00
 1.600472E+00  1.574453E+00  1.549266E+00  1.524873E+00  1.501236E+00  1.478321E+00  1.456096E+00  1.434528E+00  1.413591E+00  1.393256E+00
 1.373498E+00  1.354293E+00  1.335617E+00  1.317450E+00  1.299770E+00  1.282559E+00  1.265798E+00  1.249470E+00  1.233557E+00  1.218045E+00
 1.202918E+00  1.188163E+00  1.173765E+00  1.159712E+00  1.145992E+00  1.132593E+00  1.119503E+00  1.106713E+00  1.094212E+00  1.081990E+00
 1.070039E+00  1.058348E+00  1.046911E+00  1.035719E+00  1.024764E+00  1.014040E+00  1.003541E+00  9.932607E-01  9.831949E-01  9.733347E-01
 1.517288E+02  8.913177E+01  4.376391E+01  2.886296E+01  2.181862E+01  1.768246E+01  1.491629E+01  1.291500E+01  1.139221E+01  1.019214E+01
 9.221247E+00  8.419368E+00  7.745833E+00  7.172093E+00  6.677491E+00  6.246709E+00  5.868142E+00  5.532839E+00  5.233785E+00  4.965402E+00
 4.723202E+00  4.503533E+00  4.303389E+00  4.120278E+00  3.952115E+00  3.797141E+00  3.653863E+00  3.521005E+00  3.397471E+00  3.282312E+00
 3.174703E+00  3.073928E+00  2.979353E+00  2.890425E+00  2.806653E+00  2.727599E+00  2.652878E+00  2.582141E+00  2.515079E+00  2.451413E+00
 2.390891E+00  2.333286E+00  2.278391E+00  2.226020E+00  2.176003E+00  2.128185E+00  2.082423E+00  2.038588E+00  1.996561E+00  1.956232E+00
 1.917500E+00  1.880273E+00  1.844463E+00  1.809993E+00  1.776787E+00  1.744778E+00  1.713902E+00  1.684100E+00  1.655317E+00  1.627501E+00
 1.600605E+00  1.574584E+00  1.549395E+00  1.525000E+00  1.501362E+00  1.478445E+00  1.456217E+00  1.434648E+00  1.413709E+00  1.393372E+00
 1.373613E+00  1.354406E+00  1.335729E+00  1.317560E+00  1.299879E+00  1.282666E+00  1.265904E+00  1.249574E+00  1.233660E+00  1.218147E+00
 1.203019E+00  1.188262E+00  1.173863E+00  1.159809E+00  1.146087E+00  1.132687E+00  1.119597E+00  1.106805E+00  1.094303E+00  1.082080E+00
 1.070128E+00  1.058437E+00  1.046998E+00  1.035805E+00  1.024849E+00  1.014124E+00  1.003622E+00  9.933385E-01  9.832678E-01  9.734012E-01
 1.649775E+02  9.532581E+01  4.518049E+01  2.919304E+01  2.190123E+01  1.770472E+01  1.492302E+01  1.291755E+01  1.139357E+01  1.019310E+01
 9.222048E+00  8.420080E+00  7.746483E+00  7.172693E+00  6.678049E+00  6.247231E+00  5.868632E+00  5.533301E+00  5.234222E+00  4.965816E+00
 4.723597E+00  4.503908E+00  4.303748E+00  4.120622E+00  3.952445E+00  3.797458E+00  3.654168E+00  3.521299E+00  3.397754E+00  3.282585E+00
 3.174968E+00  3.074184E+00  2.979602E+00  2.890666E+00  2.806887E+00  2.727827E+00  2.653099E+00  2.582357E+00  2.515289E+00  2.451618E+00
 2.391090E+00  2.333480E+00  2.278581E+00  2.226206E+00  2.176185E+00  2.128362E+00  2.082597E+00  2.038758E+00  1.996728E+00  1.956395E+00
 1.917660E+00  1.880430E+00  1.844617E+00  1.810144E+00  1.776935E+00  1.744923E+00  1.714045E+00  1.684240E+00  1.655455E+00  1.627637E+00
 1.600739E+00  1.574715E+00  1.549525E+00  1.525127E+00  1.501487E+00  1.478568E+00  1.456338E+00  1.434768E+00  1.413827E+00  1.393488E+00
 1.373727E+00  1.354519E+00  1.335840E+00  1.317670E+00  1.299987E+00  1.282773E+00  1.266009E+00  1.249678E+00  1.233763E+00  1.218248E+00
 1.203119E+00  1.188361E+00  1.173961E+00  1.159905E+00  1.146183E+00  1.132781E+00  1.119690E+00  1.106898E+00  1.094394E+00  1.082171E+00
 1.070217E+00  1.058525E+00  1.047085E+00  1.035891E+00  1.024934E+00  1.014207E+00  1.003703E+00  9.934161E-01  9.833405E-01  9.734684E-01
 1.711921E+02  9.831762E+01  4.591792E+01  2.936825E+01  2.194567E+01  1.771715E+01  1.492716E+01  1.291941E+01  1.139473E+01  1.019401E+01
 9.222835E+00  8.420788E+00  7.747131E+00  7.173292E+00  6.678607E+00  6.247752E+00  5.869122E+00  5.533763E+00  5.234658E+00  4.966231E+00
 4.723991E+00  4.504284E+00  4.304107E+00  4.120966E+00  3.952775E+00  3.797775E+00  3.654473E+00  3.521593E+00  3.398038E+00  3.282859E+00
 3.175233E+00  3.074440E+00  2.979850E+00  2.890907E+00  2.807121E+00  2.728054E+00  2.653320E+00  2.582572E+00  2.515499E+00  2.451822E+00
 2.391290E+00  2.333675E+00  2.278771E+00  2.226391E+00  2.176366E+00  2.128540E+00  2.082771E+00  2.038928E+00  1.996894E+00  1.956558E+00
 1.917820E+00  1.880586E+00  1.844771E+00  1.810294E+00  1.777083E+00  1.745069E+00  1.714188E+00  1.684381E+00  1.655593E+00  1.627773E+00
 1.600872E+00  1.574847E+00  1.549654E+00  1.525255E+00  1.501612E+00  1.478691E+00  1.456460E+00  1.434887E+00  1.413945E+00  1.393605E+00
 1.373842E+00  1.354631E+00  1.335951E+00  1.317780E+00  1.300096E+00  1.282880E+00  1.266115E+00  1.249782E+00  1.233866E+00  1.218350E+00
 1.203219E+00  1.188460E+00  1.174059E+00  1.160002E+00  1.146279E+00  1.132876E+00  1.119783E+00  1.106990E+00  1.094486E+00  1.082261E+00
 1.070306E+00  1.058613E+00  1.047173E+00  1.035977E+00  1.025018E+00  1.014290E+00  1.003784E+00  9.934935E-01  9.834132E-01  9.735359E-01
 1.711963E+02  9.832167E+01  4.592127E+01  2.937071E+01  2.194752E+01  1.771865E+01  1.492841E+01  1.292049E+01  1.139568E+01  1.019487E+01
 9.223606E+00  8.421491E+00  7.747778E+00  7.173891E+00  6.679164E+00  6.248274E+00  5.869612E+00  5.534225E+00  5.235095E+00  4.966645E+00
 4.724384E+00  4.504660E+00  4.304466E+00  4.121309E+00  3.953104E+00  3.798091E+00  3.654777E+00  3.521886E+00  3.398321E+00  3.283133E+00
 3.175498E+00  3.074697E+00  2.980099E+00  2.891148E+00  2.807355E+00  2.728282E+00  2.653541E+00  2.582787E+00  2.515709E+00  2.452026E+00
 2.391489E+00  2.333869E+00  2.278961E+00  2.226577E+00  2.176548E+00  2.128717E+00  2.082944E+00  2.039098E+00  1.997061E+00  1.956722E+00
 1.917980E+00  1.880743E+00  1.844925E+00  1.810445E+00  1.777231E+00  1.745214E+00  1.714331E+00  1.684521E+00  1.655731E+00  1.627908E+00
 1.601006E+00  1.574978E+00  1.549783E+00  1.525382E+00  1.501737E+00  1.478814E+00  1.456581E+00  1.435007E+00  1.414062E+00  1.393721E+00
 1.373956E+00  1.354744E+00  1.336063E+00  1.317889E+00  1.300204E+00  1.282987E+00  1.266220E+00  1.249886E+00  1.233968E+00  1.218451E+00
 1.203319E+00  1.188559E+00  1.174156E+00  1.160099E+00  1.146374E+00  1.132970E+00  1.119876E+00  1.107082E+00  1.094577E+00  1.082351E+00
 1.070395E+00  1.058701E+00  1.047260E+00  1.036063E+00  1.025103E+00  1.014373E+00  1.003864E+00  9.935709E-01  9.834858E-01  9.736034E-01
 1.649975E+02  9.534188E+01  4.519155E+01  2.920056E+01  2.190681E+01  1.770920E+01  1.492678E+01  1.292080E+01  1.139643E+01  1.019566E+01
 9.224361E+00  8.422190E+00  7.748424E+00  7.174489E+00  6.679721E+00  6.248795E+00  5.870101E+00  5.534686E+00  5.235531E+00  4.967059E+00
 4.724778E+00  4.505035E+00  4.304824E+00  4.121653E+00  3.953433E+00  3.798408E+00  3.655082E+00  3.522180E+00  3.398604E+00  3.283406E+00
 3.175762E+00  3.074953E+00  2.980347E+00  2.891389E+00  2.807588E+00  2.728509E+00  2.653762E+00  2.583002E+00  2.515918E+00  2.452231E+00
 2.391688E+00  2.334064E+00  2.279151E+00  2.226762E+00  2.176729E+00  2.128894E+00  2.083118E+00  2.039268E+00  1.997227E+00  1.956884E+00
 1.918140E+00  1.880900E+00  1.845078E+00  1.810596E+00  1.777379E+00  1.745360E+00  1.714473E+00  1.684661E+00  1.655869E+00  1.628044E+00
 1.601139E+00  1.575109E+00  1.549912E+00  1.525509E+00  1.501862E+00  1.478938E+00  1.456702E+00  1.435126E+00  1.414180E+00  1.393837E+00
 1.374070E+00  1.354857E+00  1.336174E+00  1.317999E+00  1.300312E+00  1.283094E+00  1.266326E+00  1.249990E+00  1.234071E+00  1.218553E+00
 1.203420E+00  1.188658E+00  1.174254E+00  1.160195E+00  1.146469E+00  1.133065E+00  1.119970E+00  1.107174E+00  1.094668E+00  1.082441E+00
 1.070484E+00  1.058789E+00  1.047346E+00  1.036149E+00  1.025188E+00  1.014455E+00  1.003945E+00  9.936482E-01  9.835585E-01  9.736709E-01
 1.517624E+02  8.915853E+01  4.378217E+01  2.887537E+01  2.182788E+01  1.768991E+01  1.492255E+01  1.292041E+01  1.139698E+01  1.019640E+01
 9.225101E+00  8.422885E+00  7.749068E+00  7.175087E+00  6.680278E+00  6.249315E+00  5.870590E+00  5.535147E+00  5.235968E+00  4.967473E+00
 4.725172E+00  4.505410E+00  4.305183E+00  4.121996E+00  3.953763E+00  3.798724E+00  3.655386E+00  3.522473E+00  3.398887E+00  3.283680E+00
 3.176027E+00  3.075209E+00  2.980595E+00  2.891630E+00  2.807822E+00  2.728736E+00  2.653983E+00  2.583217E+00  2.516128E+00  2.452435E+00
 2.391887E+00  2.334258E+00  2.279340E+00  2.226948E+00  2.176910E+00  2.129072E+00  2.083291E+00  2.039438E+00  1.997393E+00  1.957047E+00
 1.918299E+00  1.881056E+00  1.845232E+00  1.810747E+00  1.777527E+00  1.745505E+00  1.714616E+00  1.684802E+00  1.656007E+00  1.628179E+00
 1.601272E+00  1.575240E+00  1.550041E+00  1.525636E+00  1.501987E+00  1.479061E+00  1.456824E+00  1.435246E+00  1.414298E+00  1.393953E+00
 1.374185E+00  1.354970E+00  1.336285E+00  1.318109E+00  1.300420E+00  1.283201E+00  1.266431E+00  1.250094E+00  1.234174E+00  1.218654E+00
 1.203520E+00  1.188757E+00  1.174352E+00  1.160292E+00  1.146565E+00  1.133159E+00  1.120063E+00  1.107266E+00  1.094759E+00  1.082531E+00
 1.070573E+00  1.058877E+00  1.047433E+00  1.036234E+00  1.025272E+00  1.014538E+00  1.004026E+00  9.937257E-01  9.836311E-01  9.737379E-01
 1.297019E+02  7.931930E+01  4.181646E+01  2.842967E+01  2.171907E+01  1.766287E+01  1.491626E+01  1.291947E+01  1.139739E+01  1.019711E+01
 9.225829E+00  8.423576E+00  7.749711E+00  7.175684E+00  6.680834E+00  6.249836E+00  5.871079E+00  5.535608E+00  5.236404E+00  4.967886E+00
 4.725565E+00  4.505785E+00  4.305541E+00  4.122339E+00  3.954092E+00  3.799040E+00  3.655691E+00  3.522766E+00  3.399170E+00  3.283953E+00
 3.176291E+00  3.075465E+00  2.980843E+00  2.891871E+00  2.808056E+00  2.728963E+00  2.654204E+00  2.583432E+00  2.516337E+00  2.452639E+00
 2.392086E+00  2.334452E+00  2.279530E+00  2.227133E+00  2.177091E+00  2.129249E+00  2.083464E+00  2.039608E+00  1.997559E+00  1.957210E+00
 1.918459E+00  1.881213E+00  1.845385E+00  1.810897E+00  1.777675E+00  1.745650E+00  1.714759E+00  1.684942E+00  1.656144E+00  1.628315E+00
 1.601405E+00  1.575371E+00  1.550170E+00  1.525763E+00  1.502112E+00  1.479184E+00  1.456945E+00  1.435365E+00  1.414415E+00  1.394069E+00
 1.374299E+00  1.355083E+00  1.336396E+00  1.318218E+00  1.300529E+00  1.283307E+00  1.266537E+00  1.250198E+00  1.234277E+00  1.218755E+00
 1.203620E+00  1.188856E+00  1.174450E+00  1.160388E+00  1.146660E+00  1.133253E+00  1.120156E+00  1.107358E+00  1.094850E+00  1.082621E+00
 1.070662E+00  1.058965E+00  1.047520E+00  1.036320E+00  1.025357E+00  1.014621E+00  1.004106E+00  9.938033E-01  9.837038E-01  9.738042E-01
 9.597857E+01  6.516751E+01  3.952086E+01  2.791252E+01  2.159174E+01  1.763091E+01  1.490865E+01  1.291817E+01  1.139769E+01  1.019778E+01
 9.226550E+00  8.424265E+00  7.750353E+00  7.176281E+00  6.681391E+00  6.250356E+00  5.871568E+00  5.536069E+00  5.236839E+00  4.968300E+00