# vtk DataFile Version 2.0
PFLOTRAN output
ASCII
DATASET UNSTRUCTURED_GRID
POINTS          462 float
 0.000000E+00  0.000000E+00  0.000000E+00
 2.000000E+03  0.000000E+00  0.000000E+00
 4.000000E+03  0.000000E+00  0.000000E+00
 6.000000E+03  0.000000E+00  0.000000E+00
 8.000000E+03  0.000000E+00  0.000000E+00
 1.000000E+04  0.000000E+00  0.000000E+00
 1.200000E+04  0.000000E+00  0.000000E+00
 1.400000E+04  0.000000E+00  0.000000E+00
 1.600000E+04  0.000000E+00  0.000000E+00
 1.800000E+04  0.000000E+00  0.000000E+00
 2.000000E+04  0.000000E+00  0.000000E+00
 0.000000E+00  1.000000E+00  0.000000E+00
 2.000000E+03  1.000000E+00  0.000000E+00
 4.000000E+03  1.000000E+00  0.000000E+00
 6.000000E+03  1.000000E+00  0.000000E+00
 8.000000E+03  1.000000E+00  0.000000E+00
 1.000000E+04  1.000000E+00  0.000000E+00
 1.200000E+04  1.000000E+00  0.000000E+00
 1.400000E+04  1.000000E+00  0.000000E+00
 1.600000E+04  1.000000E+00  0.000000E+00
 1.800000E+04  1.000000E+00  0.000000E+00
 2.000000E+04  1.000000E+00  0.000000E+00
 0.000000E+00  0.000000E+00  5.000000E+00
 2.000000E+03  0.000000E+00  5.000000E+00
 4.000000E+03  0.000000E+00  5.000000E+00
 6.000000E+03  0.000000E+00  5.000000E+00
 8.000000E+03  0.000000E+00  5.000000E+00
 1.000000E+04  0.000000E+00  5.000000E+00
 1.200000E+04  0.000000E+00  5.000000E+00
 1.400000E+04  0.000000E+00  5.000000E+00
 1.600000E+04  0.000000E+00  5.000000E+00
 1.800000E+04  0.000000E+00  5.000000E+00
 2.000000E+04  0.000000E+00  5.000000E+00
 0.000000E+00  1.000000E+00  5.000000E+00
 2.000000E+03  1.000000E+00  5.000000E+00
 4.000000E+03  1.000000E+00  5.000000E+00
 6.000000E+03  1.000000E+00  5.000000E+00
 8.000000E+03  1.000000E+00  5.000000E+00
 1.000000E+04  1.000000E+00  5.000000E+00
 1.200000E+04  1.000000E+00  5.000000E+00
 1.400000E+04  1.000000E+00  5.000000E+00
 1.600000E+04  1.000000E+00  5.000000E+00
 1.800000E+04  1.000000E+00  5.000000E+00
 2.000000E+04  1.000000E+00  5.000000E+00
 0.000000E+00  0.000000E+00  1.000000E+01
 2.000000E+03  0.000000E+00  1.000000E+01
 4.000000E+03  0.000000E+00  1.000000E+01
 6.000000E+03  0.000000E+00  1.000000E+01
 8.000000E+03  0.000000E+00  1.000000E+01
 1.000000E+04  0.000000E+00  1.000000E+01
 1.200000E+04  0.000000E+00  1.000000E+01
 1.400000E+04  0.000000E+00  1.000000E+01
 1.600000E+04  0.000000E+00  1.000000E+01
 1.800000E+04  0.000000E+00  1.000000E+01
 2.000000E+04  0.000000E+00  1.000000E+01
 0.000000E+00  1.000000E+00  1.000000E+01
 2.000000E+03  1.000000E+00  1.000000E+01
 4.000000E+03  1.000000E+00  1.000000E+01
 6.000000E+03  1.000000E+00  1.000000E+01
 8.000000E+03  1.000000E+00  1.000000E+01
 1.000000E+04  1.000000E+00  1.000000E+01
 1.200000E+04  1.000000E+00  1.000000E+01
 1.400000E+04  1.000000E+00  1.000000E+01
 1.600000E+04  1.000000E+00  1.000000E+01
 1.800000E+04  1.000000E+00  1.000000E+01
 2.000000E+04  1.000000E+00  1.000000E+01
 0.000000E+00  0.000000E+00  1.500000E+01
 2.000000E+03  0.000000E+00  1.500000E+01
 4.000000E+03  0.000000E+00  1.500000E+01
 6.000000E+03  0.000000E+00  1.500000E+01
 8.000000E+03  0.000000E+00  1.500000E+01
 1.000000E+04  0.000000E+00  1.500000E+01
 1.200000E+04  0.000000E+00  1.500000E+01
 1.400000E+04  0.000000E+00  1.500000E+01
 1.600000E+04  0.000000E+00  1.500000E+01
 1.800000E+04  0.000000E+00  1.500000E+01
 2.000000E+04  0.000000E+00  1.500000E+01
 0.000000E+00  1.000000E+00  1.500000E+01
 2.000000E+03  1.000000E+00  1.500000E+01
 4.000000E+03  1.000000E+00  1.500000E+01
 6.000000E+03  1.000000E+00  1.500000E+01
 8.000000E+03  1.000000E+00  1.500000E+01
 1.000000E+04  1.000000E+00  1.500000E+01
 1.200000E+04  1.000000E+00  1.500000E+01
 1.400000E+04  1.000000E+00  1.500000E+01
 1.600000E+04  1.000000E+00  1.500000E+01
 1.800000E+04  1.000000E+00  1.500000E+01
 2.000000E+04  1.000000E+00  1.500000E+01
 0.000000E+00  0.000000E+00  2.000000E+01
 2.000000E+03  0.000000E+00  2.000000E+01
 4.000000E+03  0.000000E+00  2.000000E+01
 6.000000E+03  0.000000E+00  2.000000E+01
 8.000000E+03  0.000000E+00  2.000000E+01
 1.000000E+04  0.000000E+00  2.000000E+01
 1.200000E+04  0.000000E+00  2.000000E+01
 1.400000E+04  0.000000E+00  2.000000E+01
 1.600000E+04  0.000000E+00  2.000000E+01
 1.800000E+04  0.000000E+00  2.000000E+01
 2.000000E+04  0.000000E+00  2.000000E+01
 0.000000E+00  1.000000E+00  2.000000E+01
 2.000000E+03  1.000000E+00  2.000000E+01
 4.000000E+03  1.000000E+00  2.000000E+01
 6.000000E+03  1.000000E+00  2.000000E+01
 8.000000E+03  1.000000E+00  2.000000E+01
 1.000000E+04  1.000000E+00  2.000000E+01
 1.200000E+04  1.000000E+00  2.000000E+01
 1.400000E+04  1.000000E+00  2.000000E+01
 1.600000E+04  1.000000E+00  2.000000E+01
 1.800000E+04  1.000000E+00  2.000000E+01
 2.000000E+04  1.000000E+00  2.000000E+01
 0.000000E+00  0.000000E+00  2.500000E+01
 2.000000E+03  0.000000E+00  2.500000E+01
 4.000000E+03  0.000000E+00  2.500000E+01
 6.000000E+03  0.000000E+00  2.500000E+01
 8.000000E+03  0.000000E+00  2.500000E+01
 1.000000E+04  0.000000E+00  2.500000E+01
 1.200000E+04  0.000000E+00  2.500000E+01
 1.400000E+04  0.000000E+00  2.500000E+01
 1.600000E+04  0.000000E+00  2.500000E+01
 1.800000E+04  0.000000E+00  2.500000E+01
 2.000000E+04  0.000000E+00  2.500000E+01
 0.000000E+00  1.000000E+00  2.500000E+01
 2.000000E+03  1.000000E+00  2.500000E+01
 4.000000E+03  1.000000E+00  2.500000E+01
 6.000000E+03  1.000000E+00  2.500000E+01
 8.000000E+03  1.000000E+00  2.500000E+01
 1.000000E+04  1.000000E+00  2.500000E+01
 1.200000E+04  1.000000E+00  2.500000E+01
 1.400000E+04  1.000000E+00  2.500000E+01
 1.600000E+04  1.000000E+00  2.500000E+01
 1.800000E+04  1.000000E+00  2.500000E+01
 2.000000E+04  1.000000E+00  2.500000E+01
 0.000000E+00  0.000000E+00  3.000000E+01
 2.000000E+03  0.000000E+00  3.000000E+01
 4.000000E+03  0.000000E+00  3.000000E+01
 6.000000E+03  0.000000E+00  3.000000E+01
 8.000000E+03  0.000000E+00  3.000000E+01
 1.000000E+04  0.000000E+00  3.000000E+01
 1.200000E+04  0.000000E+00  3.000000E+01
 1.400000E+04  0.000000E+00  3.000000E+01
 1.600000E+04  0.000000E+00  3.000000E+01
 1.800000E+04  0.000000E+00  3.000000E+01
 2.000000E+04  0.000000E+00  3.000000E+01
 0.000000E+00  1.000000E+00  3.000000E+01
 2.000000E+03  1.000000E+00  3.000000E+01
 4.000000E+03  1.000000E+00  3.000000E+01
 6.000000E+03  1.000000E+00  3.000000E+01
 8.000000E+03  1.000000E+00  3.000000E+01
 1.000000E+04  1.000000E+00  3.000000E+01
 1.200000E+04  1.000000E+00  3.000000E+01
 1.400000E+04  1.000000E+00  3.000000E+01
 1.600000E+04  1.000000E+00  3.000000E+01
 1.800000E+04  1.000000E+00  3.000000E+01
 2.000000E+04  1.000000E+00  3.000000E+01
 0.000000E+00  0.000000E+00  3.500000E+01
 2.000000E+03  0.000000E+00  3.500000E+01
 4.000000E+03  0.000000E+00  3.500000E+01
 6.000000E+03  0.000000E+00  3.500000E+01
 8.000000E+03  0.000000E+00  3.500000E+01
 1.000000E+04  0.000000E+00  3.500000E+01
 1.200000E+04  0.000000E+00  3.500000E+01
 1.400000E+04  0.000000E+00  3.500000E+01
 1.600000E+04  0.000000E+00  3.500000E+01
 1.800000E+04  0.000000E+00  3.500000E+01
 2.000000E+04  0.000000E+00  3.500000E+01
 0.000000E+00  1.000000E+00  3.500000E+01
 2.000000E+03  1.000000E+00  3.500000E+01
 4.000000E+03  1.000000E+00  3.500000E+01
 6.000000E+03  1.000000E+00  3.500000E+01
 8.000000E+03  1.000000E+00  3.500000E+01
 1.000000E+04  1.000000E+00  3.500000E+01
 1.200000E+04  1.000000E+00  3.500000E+01
 1.400000E+04  1.000000E+00  3.500000E+01
 1.600000E+04  1.000000E+00  3.500000E+01
 1.800000E+04  1.000000E+00  3.500000E+01
 2.000000E+04  1.000000E+00  3.500000E+01
 0.000000E+00  0.000000E+00  4.000000E+01
 2.000000E+03  0.000000E+00  4.000000E+01
 4.000000E+03  0.000000E+00  4.000000E+01
 6.000000E+03  0.000000E+00  4.000000E+01
 8.000000E+03  0.000000E+00  4.000000E+01
 1.000000E+04  0.000000E+00  4.000000E+01
 1.200000E+04  0.000000E+00  4.000000E+01
 1.400000E+04  0.000000E+00  4.000000E+01
 1.600000E+04  0.000000E+00  4.000000E+01
 1.800000E+04  0.000000E+00  4.000000E+01
 2.000000E+04  0.000000E+00  4.000000E+01
 0.000000E+00  1.000000E+00  4.000000E+01
 2.000000E+03  1.000000E+00  4.000000E+01
 4.000000E+03  1.000000E+00  4.000000E+01
 6.000000E+03  1.000000E+00  4.000000E+01
 8.000000E+03  1.000000E+00  4.000000E+01
 1.000000E+04  1.000000E+00  4.000000E+01
 1.200000E+04  1.000000E+00  4.000000E+01
 1.400000E+04  1.000000E+00  4.000000E+01
 1.600000E+04  1.000000E+00  4.000000E+01
 1.800000E+04  1.000000E+00  4.000000E+01
 2.000000E+04  1.000000E+00  4.000000E+01
 0.000000E+00  0.000000E+00  4.500000E+01
 2.000000E+03  0.000000E+00  4.500000E+01
 4.000000E+03  0.000000E+00  4.500000E+01
 6.000000E+03  0.000000E+00  4.500000E+01
 8.000000E+03  0.000000E+00  4.500000E+01
 1.000000E+04  0.000000E+00  4.500000E+01
 1.200000E+04  0.000000E+00  4.500000E+01
 1.400000E+04  0.000000E+00  4.500000E+01
 1.600000E+04  0.000000E+00  4.500000E+01
 1.800000E+04  0.000000E+00  4.500000E+01
 2.000000E+04  0.000000E+00  4.500000E+01
 0.000000E+00  1.000000E+00  4.500000E+01
 2.000000E+03  1.000000E+00  4.500000E+01
 4.000000E+03  1.000000E+00  4.500000E+01
 6.000000E+03  1.000000E+00  4.500000E+01
 8.000000E+03  1.000000E+00  4.500000E+01
 1.000000E+04  1.000000E+00  4.500000E+01
 1.200000E+04  1.000000E+00  4.500000E+01
 1.400000E+04  1.000000E+00  4.500000E+01
 1.600000E+04  1.000000E+00  4.500000E+01
 1.800000E+04  1.000000E+00  4.500000E+01
 2.000000E+04  1.000000E+00  4.500000E+01
 0.000000E+00  0.000000E+00  5.000000E+01
 2.000000E+03  0.000000E+00  5.000000E+01
 4.000000E+03  0.000000E+00  5.000000E+01
 6.000000E+03  0.000000E+00  5.000000E+01
 8.000000E+03  0.000000E+00  5.000000E+01
 1.000000E+04  0.000000E+00  5.000000E+01
 1.200000E+04  0.000000E+00  5.000000E+01
 1.400000E+04  0.000000E+00  5.000000E+01
 1.600000E+04  0.000000E+00  5.000000E+01
 1.800000E+04  0.000000E+00  5.000000E+01
 2.000000E+04  0.000000E+00  5.000000E+01
 0.000000E+00  1.000000E+00  5.000000E+01
 2.000000E+03  1.000000E+00  5.000000E+01
 4.000000E+03  1.000000E+00  5.000000E+01
 6.000000E+03  1.000000E+00  5.000000E+01
[...]
CELL_DATA      200
SCALARS Vlx                  float 1
LOOKUP_TABLE default
 7.825378E-02  5.094005E-02  2.870027E-02  1.871874E-02  1.299426E-02  9.346079E-03  6.920738E-03  5.299108E-03  4.240683E-03  3.594559E-03
 7.825713E-02  5.094192E-02  2.870114E-02  1.871931E-02  1.299466E-02  9.346361E-03  6.920947E-03  5.299268E-03  4.240811E-03  3.594649E-03
 7.826147E-02  5.094412E-02  2.870201E-02  1.871987E-02  1.299505E-02  9.346643E-03  6.921156E-03  5.299428E-03  4.240938E-03  3.594739E-03
 7.826681E-02  5.094665E-02  2.870287E-02  1.872044E-02  1.299544E-02  9.346924E-03  6.921364E-03  5.299587E-03  4.241066E-03  3.594828E-03
 7.827314E-02  5.094951E-02  2.870374E-02  1.872100E-02  1.299583E-02  9.347206E-03  6.921573E-03  5.299747E-03  4.241194E-03  3.594918E-03
 7.828046E-02  5.095270E-02  2.870461E-02  1.872157E-02  1.299622E-02  9.347488E-03  6.921781E-03  5.299907E-03  4.241322E-03  3.595008E-03
 7.828855E-02  5.095615E-02  2.870547E-02  1.872213E-02  1.299661E-02  9.347769E-03  6.921990E-03  5.300066E-03  4.241449E-03  3.595098E-03
 7.829540E-02  5.095918E-02  2.870634E-02  1.872270E-02  1.299701E-02  9.348051E-03  6.922198E-03  5.300226E-03  4.241577E-03  3.595188E-03
 7.830076E-02  5.096172E-02  2.870720E-02  1.872326E-02  1.299740E-02  9.348333E-03  6.922407E-03  5.300386E-03  4.241705E-03  3.595277E-03
 7.830463E-02  5.096376E-02  2.870807E-02  1.872382E-02  1.299779E-02  9.348614E-03  6.922615E-03  5.300545E-03  4.241832E-03  3.595367E-03
 7.830699E-02  5.096530E-02  2.870894E-02  1.872439E-02  1.299818E-02  9.348896E-03  6.922824E-03  5.300705E-03  4.241960E-03  3.595457E-03
 7.830788E-02  5.096634E-02  2.870980E-02  1.872495E-02  1.299857E-02  9.349177E-03  6.923032E-03  5.300864E-03  4.242088E-03  3.595547E-03
 7.830727E-02  5.096689E-02  2.871067E-02  1.872552E-02  1.299896E-02  9.349459E-03  6.923240E-03  5.301024E-03  4.242215E-03  3.595636E-03
 7.830518E-02  5.096695E-02  2.871153E-02  1.872608E-02  1.299936E-02  9.349740E-03  6.923449E-03  5.301183E-03  4.242343E-03  3.595726E-03
 7.830184E-02  5.096658E-02  2.871240E-02  1.872665E-02  1.299975E-02  9.350022E-03  6.923657E-03  5.301343E-03  4.242471E-03  3.595816E-03
 7.829923E-02  5.096646E-02  2.871327E-02  1.872721E-02  1.300014E-02  9.350303E-03  6.923866E-03  5.301502E-03  4.242598E-03  3.595905E-03
 7.829761E-02  5.096667E-02  2.871413E-02  1.872777E-02  1.300053E-02  9.350584E-03  6.924074E-03  5.301662E-03  4.242726E-03  3.595995E-03
 7.829697E-02  5.096721E-02  2.871500E-02  1.872834E-02  1.300092E-02  9.350866E-03  6.924282E-03  5.301821E-03  4.242854E-03  3.596085E-03
 7.829734E-02  5.096808E-02  2.871586E-02  1.872890E-02  1.300131E-02  9.351147E-03  6.924491E-03  5.301981E-03  4.242981E-03  3.596175E-03
 7.829869E-02  5.096928E-02  2.871673E-02  1.872947E-02  1.300170E-02  9.351429E-03  6.924699E-03  5.302140E-03  4.243109E-03  3.596264E-03


SCALARS Vly                  float 1
LOOKUP_TABLE default
 0.000000E+00  0.000000E+00  0.000000E+00  0.000000E+00  0.000000E+00  0.000000E+00  0.000000E+00  0.000000E+00  0.000000E+00  0.000000E+00
 0.000000E+00  0.000000E+00  0.000000E+00  0.000000E+00  0.000000E+00  0.000000E+00  0.000000E+00  0.000000E+00  0.000000E+00  0.000000E+00
 0.000000E+00  0.000000E+00  0.000000E+00  0.000000E+00  0.000000E+00  0.000000E+00  0.000000E+00  0.000000E+00  0.000000E+00  0.000000E+00
 0.000000E+00  0.000000E+00  0.000000E+00  0.000000E+00  0.000000E+00  0.000000E+00  0.000000E+00  0.000000E+00  0.000000E+00  0.000000E+00
 0.000000E+00  0.000000E+00  0.000000E+00  0.000000E+00  0.000000E+00  0.000000E+00  0.000000E+00  0.000000E+00  0.000000E+00  0.000000E+00
 0.000000E+00  0.000000E+00  0.000000E+00  0.000000E+00  0.000000E+00  0.000000E+00  0.000000E+00  0.000000E+00  0.000000E+00  0.000000E+00
 0.000000E+00  0.000000E+00  0.000000E+00  0.000000E+00  0.000000E+00  0.000000E+00  0.000000E+00  0.000000E+00  0.000000E+00  0.000000E+00
 0.000000E+00  0.000000E+00  0.000000E+00  0.000000E+00  0.000000E+00  0.000000E+00  0.000000E+00  0.000000E+00  0.000000E+00  0.000000E+00
 0.000000E+00  0.000000E+00  0.000000E+00  0.000000E+00  0.000000E+00  0.000000E+00  0.000000E+00  0.000000E+00  0.000000E+00  0.000000E+00
 0.000000E+00  0.000000E+00  0.000000E+00  0.000000E+00  0.000000E+00  0.000000E+00  0.000000E+00  0.000000E+00  0.000000E+00  0.000000E+00
 0.000000E+00  0.000000E+00  0.000000E+00  0.000000E+00  0.000000E+00  0.000000E+00  0.000000E+00  0.000000E+00  0.000000E+00  0.000000E+00
 0.000000E+00  0.000000E+00  0.000000E+00  0.000000E+00  0.000000E+00  0.000000E+00  0.000000E+00  0.000000E+00  0.000000E+00  0.000000E+00
 0.000000E+00  0.000000E+00  0.000000E+00  0.000000E+00  0.000000E+00  0.000000E+00  0.000000E+00  0.000000E+00  0.000000E+00  0.000000E+00
 0.000000E+00  0.000000E+00  0.000000E+00  0.000000E+00  0.000000E+00  0.000000E+00  0.000000E+00  0.000000E+00  0.000000E+00  0.000000E+00
 0.000000E+00  0.000000E+00  0.000000E+00  0.000000E+00  0.000000E+00  0.000000E+00  0.000000E+00  0.000000E+00  0.000000E+00  0.000000E+00
 0.000000E+00  0.000000E+00  0.000000E+00  0.000000E+00  0.000000E+00  0.000000E+00  0.000000E+00  0.000000E+00  0.000000E+00  0.000000E+00
 0.000000E+00  0.000000E+00  0.000000E+00  0.000000E+00  0.000000E+00  0.000000E+00  0.000000E+00  0.000000E+00  0.000000E+00  0.000000E+00
 0.000000E+00  0.000000E+00  0.000000E+00  0.000000E+00  0.000000E+00  0.000000E+00  0.000000E+00  0.000000E+00  0.000000E+00  0.000000E+00
 0.000000E+00  0.000000E+00  0.000000E+00  0.000000E+00  0.000000E+00  0.000000E+00  0.000000E+00  0.000000E+00  0.000000E+00  0.000000E+00
 0.000000E+00  0.000000E+00  0.000000E+00  0.000000E+00  0.000000E+00  0.000000E+00  0.000000E+00  0.000000E+00  0.000000E+00  0.000000E+00


SCALARS Vlz                  float 1
LOOKUP_TABLE default
-3.977073E-04 -1.293157E-08  9.225181E-09  8.028284E-09  6.626177E-09  5.172134E-09  3.776054E-09  2.511252E-09  1.404893E-09 -4.398254E-10
-5.965762E-04 -1.911036E-08  1.335069E-08  1.161758E-08  9.589136E-09  7.484097E-09  5.465906E-09  3.636102E-09  2.032797E-09 -6.381790E-10
-9.943318E-04 -3.035269E-08  2.112014E-08  1.837522E-08  1.516814E-08  1.183864E-08  8.647636E-09  5.753854E-09  3.216203E-09 -1.008975E-09
-1.392125E-03 -3.853260E-08  2.792183E-08  2.429119E-08  2.005326E-08  1.565130E-08  1.143313E-08  7.606797E-09  4.253749E-09 -1.331028E-09
-1.789962E-03 -4.199045E-08  3.375373E-08  2.936603E-08  2.424402E-08  1.892138E-08  1.382091E-08  9.194443E-09  5.142898E-09 -1.607849E-09
-2.187847E-03 -3.907432E-08  3.861723E-08  3.359817E-08  2.773894E-08  2.164851E-08  1.581126E-08  1.051959E-08  5.883298E-09 -1.839199E-09
-2.088407E-03 -2.831196E-08  4.251200E-08  3.698635E-08  3.053548E-08  2.383078E-08  1.740451E-08  1.158252E-08  6.474924E-09 -2.023521E-09
-1.491627E-03 -1.009439E-08  4.543756E-08  3.953078E-08  3.263436E-08  2.546939E-08  1.859986E-08  1.238128E-08  6.918613E-09 -2.161304E-09
-8.948596E-04  1.329523E-08  4.739269E-08  4.122991E-08  3.403702E-08  2.656488E-08  1.939934E-08  1.291381E-08  7.215088E-09 -2.253818E-09
-2.980984E-04  3.937476E-08  4.837794E-08  4.208345E-08  3.474260E-08  2.711552E-08  1.980364E-08  1.318091E-08  7.364040E-09 -2.299496E-09
 2.986637E-04  6.564574E-08  4.839056E-08  4.209258E-08  3.475015E-08  2.712134E-08  1.980988E-08  1.318467E-08  7.365001E-09 -2.298548E-09
 8.954341E-04  8.961969E-08  4.742924E-08  4.125638E-08  3.406004E-08  2.658264E-08  1.941695E-08  1.292403E-08  7.217967E-09 -2.252607E-09
 1.492221E-03  1.088248E-07  4.549619E-08  3.957533E-08  3.267190E-08  2.549794E-08  1.862665E-08  1.239755E-08  6.922869E-09 -2.160347E-09
 2.089033E-03  1.207758E-07  4.258855E-08  3.704801E-08  3.058334E-08  2.386683E-08  1.743611E-08  1.160410E-08  6.478877E-09 -2.021054E-09
 2.188502E-03  1.231933E-07  3.870435E-08  3.367001E-08  2.779464E-08  2.168987E-08  1.584554E-08  1.054601E-08  5.887240E-09 -1.836379E-09
 1.790612E-03  1.156448E-07  3.384466E-08  2.944243E-08  2.430454E-08  1.896724E-08  1.385625E-08  9.222560E-09  5.148355E-09 -1.606682E-09
 1.392719E-03  9.955774E-08  2.800940E-08  2.436592E-08  2.011221E-08  1.569699E-08  1.146619E-08  7.631222E-09  4.260829E-09 -1.330418E-09
 9.948178E-04  7.658128E-08  2.119676E-08  1.843859E-08  1.521922E-08  1.187918E-08  8.677616E-09  5.774859E-09  3.224406E-09 -1.007225E-09
 5.969036E-04  4.837240E-08  1.340662E-08  1.166048E-08  9.625414E-09  7.513815E-09  5.489123E-09  3.653671E-09  2.040327E-09 -6.370483E-10
 3.979426E-04  3.316747E-08  9.267605E-09  8.058787E-09  6.653267E-09  5.193974E-09  3.794168E-09  2.526267E-09  1.411446E-09 -4.400852E-10


SCALARS Vgx                  float 1
LOOKUP_TABLE default
 0.000000E+00  0.000000E+00  0.000000E+00  0.000000E+00  0.000000E+00  0.000000E+00  0.000000E+00  0.000000E+00  0.000000E+00  0.000000E+00
 0.000000E+00  0.000000E+00  0.000000E+00  0.000000E+00  0.000000E+00  0.000000E+00  0.000000E+00  0.000000E+00  0.000000E+00  0.000000E+00
 0.000000E+00  0.000000E+00  0.000000E+00  0.000000E+00  0.000000E+00  0.000000E+00  0.000000E+00  0.000000E+00  0.000000E+00  0.000000E+00
 0.000000E+00  0.000000E+00  0.000000E+00  0.000000E+00  0.000000E+00  0.000000E+00  0.000000E+00  0.000000E+00  0.000000E+00  0.000000E+00
 0.000000E+00  0.000000E+00  0.000000E+00  0.000000E+00  0.000000E+00  0.000000E+00  0.000000E+00  0.000000E+00  0.000000E+00  0.000000E+00
 0.000000E+00  0.000000E+00  0.000000E+00  0.000000E+00  0.000000E+00  0.000000E+00  0.000000E+00  0.000000E+00  0.000000E+00  0.000000E+00
 0.000000E+00  0.000000E+00  0.000000E+00  0.000000E+00  0.000000E+00  0.000000E+00  0.000000E+00  0.000000E+00  0.000000E+00  0.000000E+00
 0.000000E+00  0.000000E+00  0.000000E+00  0.000000E+00  0.000000E+00  0.000000E+00  0.000000E+00  0.000000E+00  0.000000E+00  0.000000E+00
 0.000000E+00  0.000000E+00  0.000000E+00  0.000000E+00  0.000000E+00  0.000000E+00  0.000000E+00  0.000000E+00  0.000000E+00  0.000000E+00
 0.000000E+00  0.000000E+00  0.000000E+00  0.000000E+00  0.000000E+00  0.000000E+00  0.000000E+00  0.000000E+00  0.000000E+00  0.000000E+00
 0.000000E+00  0.000000E+00  0.000000E+00  0.000000E+00  0.000000E+00  0.000000E+00  0.000000E+00  0.000000E+00  0.000000E+00  0.000000E+00
 0.000000E+00  0.000000E+00  0.000000E+00  0.000000E+00  0.000000E+00  0.000000E+00  0.000000E+00  0.000000E+00  0.000000E+00  0.000000E+00
 0.000000E+00  0.000000E+00  0.000000E+00  0.000000E+00  0.000000E+00  0.000000E+00  0.000000E+00  0.000000E+00  0.000000E+00  0.000000E+00
 0.000000E+00  0.000000E+00  0.000000E+00  0.000000E+00  0.000000E+00  0.000000E+00  0.000000E+00  0.000000E+00  0.000000E+00  0.000000E+00
 0.000000E+00  0.000000E+00  0.000000E+00  0.000000E+00  0.000000E+00  0.000000E+00  0.000000E+00  0.000000E+00  0.000000E+00  0.000000E+00
 0.000000E+00  0.000000E+00  0.000000E+00  0.000000E+00  0.000000E+00  0.000000E+00  0.000000E+00  0.000000E+00  0.000000E+00  0.000000E+00
 0.000000E+00  0.000000E+00  0.000000E+00  0.000000E+00  0.000000E+00  0.000000E+00  0.000000E+00  0.000000E+00  0.000000E+00  0.000000E+00
 0.000000E+00  0.000000E+00  0.000000E+00  0.000000E+00  0.000000E+00  0.000000E+00  0.000000E+00  0.000000E+00  0.000000E+00  0.000000E+00
 0.000000E+00  0.000000E+00  0.000000E+00  0.000000E+00  0.000000E+00  0.000000E+00  0.000000E+00  0.000000E+00  0.000000E+00  0.000000E+00
 0.000000E+00  0.000000E+00  0.000000E+00  0.000000E+00  0.000000E+00  0.000000E+00  0.000000E+00  0.000000E+00  0.000000E+00  0.000000E+00


SCALARS Vgy                  float 1
LOOKUP_TABLE default
 0.000000E+00  0.000000E+00  0.000000E+00  0.000000E+00  0.000000E+00  0.000000E+00  0.000000E+00  0.000000E+00  0.000000E+00  0.000000E+00
 0.000000E+00  0.000000E+00  0.000000E+00  0.000000E+00  0.000000E+00  0.000000E+00  0.000000E+00  0.000000E+00  0.000000E+00  0.000000E+00
 0.000000E+00  0.000000E+00  0.000000E+00  0.000000E+00  0.000000E+00  0.000000E+00  0.000000E+00  0.000000E+00  0.000000E+00  0.000000E+00
 0.000000E+00  0.000000E+00  0.000000E+00  0.000000E+00  0.000000E+00  0.000000E+00  0.000000E+00  0.000000E+00  0.000000E+00  0.000000E+00
 0.000000E+00  0.000000E+00  0.000000E+00  0.000000E+00  0.000000E+00  0.000000E+00  0.000000E+00  0.000000E+00  0.000000E+00  0.000000E+00
 0.000000E+00  0.000000E+00  0.000000E+00  0.000000E+00  0.000000E+00  0.000000E+00  0.000000E+00  0.000000E+00  0.000000E+00  0.000000E+00
 0.000000E+00  0.000000E+00  0.000000E+00  0.000000E+00  0.000000E+00  0.000000E+00  0.000000E+00  0.000000E+00  0.000000E+00  0.000000E+00
 0.000000E+00  0.000000E+00  0.000000E+00  0.000000E+00  0.000000E+00  0.000000E+00  0.000000E+00  0.000000E+00  0.000000E+00  0.000000E+00
 0.000000E+00  0.000000E+00  0.000000E+00  0.000000E+00  0.000000E+00  0.000000E+00  0.000000E+00  0.000000E+00  0.000000E+00  0.000000E+00
 0.000000E+00  0.000000E+00  0.000000E+00  0.000000E+00  0.000000E+00  0.000000E+00  0.000000E+00  0.000000E+00  0.000000E+00  0.000000E+00
 0.000000E+00  0.000000E+00  0.000000E+00  0.000000E+00  0.000000E+00  0.000000E+00  0.000000E+00  0.000000E+00  0.000000E+00  0.000000E+00
 0.000000E+00  0.000000E+00  0.000000E+00  0.000000E+00  0.000000E+00  0.000000E+00  0.000000E+00  0.000000E+00  0.000000E+00  0.000000E+00
 0.000000E+00  0.000000E+00  0.000000E+00  0.000000E+00  0.000000E+00  0.000000E+00  0.000000E+00  0.000000E+00  0.000000E+00  0.000000E+00
 0.000000E+00  0.000000E+00  0.000000E+00  0.000000E+00  0.000000E+00  0.000000E+00  0.000000E+00  0.000000E+00  0.000000E+00  0.000000E+00
 0.000000E+00  0.000000E+00  0.000000E+00  0.000000E+00  0.000000E+00  0.000000E+00  0.000000E+00  0.000000E+00  0.000000E+00  0.000000E+00
 0.000000E+00  0.000000E+00  0.000000E+00  0.000000E+00  0.000000E+00  0.000000E+00  0.000000E+00  0.000000E+00  0.000000E+00  0.000000E+00
 0.000000E+00  0.000000E+00  0.000000E+00  0.000000E+00  0.000000E+00  0.000000E+00  0.000000E+00  0.000000E+00  0.000000E+00  0.000000E+00
 0.000000E+00  0.000000E+00  0.000000E+00  0.000000E+00  0.000000E+00  0.000000E+00  0.000000E+00  0.000000E+00  0.000000E+00  0.000000E+00
 0.000000E+00  0.000000E+00  0.000000E+00  0.000000E+00  0.000000E+00  0.000000E+00  0.000000E+00  0.000000E+00  0.000000E+00  0.000000E+00
 0.000000E+00  0.000000E+00  0.000000E+00  0.000000E+00  0.000000E+00  0.000000E+00  0.000000E+00  0.000000E+00  0.000000E+00  0.000000E+00


SCALARS Vgz                  float 1
LOOKUP_TABLE default
 0.000000E+00  0.000000E+00  0.000000E+00  0.000000E+00  0.000000E+00  0.000000E+00  0.000000E+00  0.000000E+00  0.000000E+00  0.000000E+00
 0.000000E+00  0.000000E+00  0.000000E+00  0.000000E+00  0.000000E+00  0.000000E+00  0.000000E+00  0.000000E+00  0.000000E+00  0.000000E+00
 0.000000E+00  0.000000E+00  0.000000E+00  0.000000E+00  0.000000E+00  0.000000E+00  0.000000E+00  0.000000E+00  0.000000E+00  0.000000E+00
 0.000000E+00  0.000000E+00  0.000000E+00  0.000000E+00  0.000000E+00  0.000000E+00  0.000000E+00  0.000000E+00  0.000000E+00  0.000000E+00
 0.000000E+00  0.000000E+00  0.000000E+00  0.000000E+00  0.000000E+00  0.000000E+00  0.000000E+00  0.000000E+00  0.000000E+00  0.000000E+00
 0.000000E+00  0.000000E+00  0.000000E+00  0.000000E+00  0.000000E+00  0.000000E+00  0.000000E+00  0.000000E+00  0.000000E+00  0.000000E+00
 0.000000E+00  0.000000E+00  0.000000E+00  0.000000E+00  0.000000E+00  0.000000E+00  0.000000E+00  0.000000E+00  0.000000E+00  0.000000E+00
 0.000000E+00  0.000000E+00  0.000000E+00  0.000000E+00  0.000000E+00  0.000000E+00  0.000000E+00  0.000000E+00  0.000000E+00  0.000000E+00
 0.000000E+00  0.000000E+00  0.000000E+00  0.000000E+00  0.000000E+00  0.000000E+00  0.000000E+00  0.000000E+00  0.000000E+00  0.000000E+00
 0.000000E+00  0.000000E+00  0.000000E+00  0.000000E+00  0.000000E+00  0.000000E+00  0.000000E+00  0.000000E+00  0.000000E+00  0.000000E+00
 0.000000E+00  0.000000E+00  0.000000E+00  0.000000E+00  0.000000E+00  0.000000E+00  0.000000E+00  0.000000E+00  0.000000E+00  0.000000E+00
 0.000000E+00  0.000000E+00  0.000000E+00  0.000000E+00  0.000000E+00  0.000000E+00  0.000000E+00  0.000000E+00  0.000000E+00  0.000000E+00
 0.000000E+00  0.000000E+00  0.000000E+00  0.000000E+00  0.000000E+00  0.000000E+00  0.000000E+00  0.000000E+00  0.000000E+00  0.000000E+00
 0.000000E+00  0.000000E+00  0.000000E+00  0.000000E+00  0.000000E+00  0.000000E+00  0.000000E+00  0.000000E+00  0.000000E+00  0.000000E+00
 0.000000E+00  0.000000E+00  0.000000E+00  0.000000E+00  0.000000E+00  0.000000E+00  0.000000E+00  0.000000E+00  0.000000E+00  0.000000E+00
 0.000000E+00  0.000000E+00  0.000000E+00  0.000000E+00  0.000000E+00  0.000000E+00  0.000000E+00  0.000000E+00  0.000000E+00  0.000000E+00
 0.000000E+00  0.000000E+00  0.000000E+00  0.000000E+00  0.000000E+00  0.000000E+00  0.000000E+00  0.000000E+00  0.000000E+00  0.000000E+00
 0.000000E+00  0.000000E+00  0.000000E+00  0.000000E+00  0.000000E+00  0.000000E+00  0.000000E+00  0.000000E+00  0.000000E+00  0.000000E+00
 0.000000E+00  0.000000E+00  0.000000E+00  0.000000E+00  0.000000E+00  0.000000E+00  0.000000E+00  0.000000E+00  0.000000E+00  0.000000E+00
 0.000000E+00  0.000000E+00  0.000000E+00  0.000000E+00  0.000000E+00  0.000000E+00  0.000000E+00  0.000000E+00  0.000000E+00  0.000000E+00


SCALARS Material_ID          int 1
LOOKUP_TABLE default
  1
  1
  1
  1
  1
  1
  1
  1
  1
  1
  1
  1
  1
  1
  1
  1
  1
  1
  1
  1
  1
  1
  1
  1
  1
  1
  1
  1
  1
  1
  1
  1
  1
  1
  1
  1
  1
  1
  1
  1
  1
  1
  1
  1
  1
  1
  1
  1
  1
  1
  1
  1
  1
  1
  1
  1
  1
  1
  1
  1
  1
  1
  1
  1
  1
  1
  1
  1
  1
  1
  1
  1
  1
  1
  1
  1
  1
  1
  1
  1
  1
  1
  1
  1
  1
  1
  1
  1
  1
  1
  1
  1
  1
  1
  1
  1
  1
  1
  1
  1
  1
  1
  1
  1
  1
  1
  1
  1
  1
  1
  1
  1
  1
  1
  1
  1
  1
  1
  1
  1
  1
  1
  1
  1
  1
  1
  1
  1
  1
  1
  1
  1
  1
  1
  1
  1
  1
  1
  1
  1
  1
  1
  1
  1
  1
  1
  1
  1
  1
  1
  1
  1
  1
  1
  1
  1
  1
  1
  1
  1
  1
  1
  1
  1
  1
  1
  1
  1
  1
  1
  1
  1
  1
  1
  1
  1
  1
  1
  1
  1
  1
  1
  1
  1
  1
  1
  1
  1
  1
  1
  1
  1
  1
  1
  1
  1
  1
  1
  1
  1


