# vtk DataFile Version 2.0
PFLOTRAN output
ASCII
DATASET UNSTRUCTURED_GRID
POINTS          462 float
 0.000000E+00  0.000000E+00  0.000000E+00
 2.000000E+03  0.000000E+00  0.000000E+00
 4.000000E+03  0.000000E+00  0.000000E+00
 6.000000E+03  0.000000E+00  0.000000E+00
 8.000000E+03  0.000000E+00  0.000000E+00
 1.000000E+04  0.000000E+00  0.000000E+00
 1.200000E+04  0.000000E+00  0.000000E+00
 1.400000E+04  0.000000E+00  0.000000E+00
 1.600000E+04  0.000000E+00  0.000000E+00
 1.800000E+04  0.000000E+00  0.000000E+00
 2.000000E+04  0.000000E+00  0.000000E+00
 0.000000E+00  1.000000E+00  0.000000E+00
 2.000000E+03  1.000000E+00  0.000000E+00
 4.000000E+03  1.000000E+00  0.000000E+00
 6.000000E+03  1.000000E+00  0.000000E+00
 8.000000E+03  1.000000E+00  0.000000E+00
 1.000000E+04  1.000000E+00  0.000000E+00
 1.200000E+04  1.000000E+00  0.000000E+00
 1.400000E+04  1.000000E+00  0.000000E+00
 1.600000E+04  1.000000E+00  0.000000E+00
 1.800000E+04  1.000000E+00  0.000000E+00
 2.000000E+04  1.000000E+00  0.000000E+00
 0.000000E+00  0.000000E+00  5.000000E+00
 2.000000E+03  0.000000E+00  5.000000E+00
 4.000000E+03  0.000000E+00  5.000000E+00
 6.000000E+03  0.000000E+00  5.000000E+00
 8.000000E+03  0.000000E+00  5.000000E+00
 1.000000E+04  0.000000E+00  5.000000E+00
 1.200000E+04  0.000000E+00  5.000000E+00
 1.400000E+04  0.000000E+00  5.000000E+00
 1.600000E+04  0.000000E+00  5.000000E+00
 1.800000E+04  0.000000E+00  5.000000E+00
 2.000000E+04  0.000000E+00  5.000000E+00
 0.000000E+00  1.000000E+00  5.000000E+00
 2.000000E+03  1.000000E+00  5.000000E+00
 4.000000E+03  1.000000E+00  5.000000E+00
 6.000000E+03  1.000000E+00  5.000000E+00
 8.000000E+03  1.000000E+00  5.000000E+00
 1.000000E+04  1.000000E+00  5.000000E+00
 1.200000E+04  1.000000E+00  5.000000E+00
 1.400000E+04  1.000000E+00  5.000000E+00
 1.600000E+04  1.000000E+00  5.000000E+00
 1.800000E+04  1.000000E+00  5.000000E+00
 2.000000E+04  1.000000E+00  5.000000E+00
 0.000000E+00  0.000000E+00  1.000000E+01
 2.000000E+03  0.000000E+00  1.000000E+01
 4.000000E+03  0.000000E+00  1.000000E+01
 6.000000E+03  0.000000E+00  1.000000E+01
 8.000000E+03  0.000000E+00  1.000000E+01
 1.000000E+04  0.000000E+00  1.000000E+01
 1.200000E+04  0.000000E+00  1.000000E+01
 1.400000E+04  0.000000E+00  1.000000E+01
 1.600000E+04  0.000000E+00  1.000000E+01
 1.800000E+04  0.000000E+00  1.000000E+01
 2.000000E+04  0.000000E+00  1.000000E+01
 0.000000E+00  1.000000E+00  1.000000E+01
 2.000000E+03  1.000000E+00  1.000000E+01
 4.000000E+03  1.000000E+00  1.000000E+01
 6.000000E+03  1.000000E+00  1.000000E+01
 8.000000E+03  1.000000E+00  1.000000E+01
 1.000000E+04  1.000000E+00  1.000000E+01
 1.200000E+04  1.000000E+00  1.000000E+01
 1.400000E+04  1.000000E+00  1.000000E+01
 1.600000E+04  1.000000E+00  1.000000E+01
 1.800000E+04  1.000000E+00  1.000000E+01
 2.000000E+04  1.000000E+00  1.000000E+01
 0.000000E+00  0.000000E+00  1.500000E+01
 2.000000E+03  0.000000E+00  1.500000E+01
 4.000000E+03  0.000000E+00  1.500000E+01
 6.000000E+03  0.000000E+00  1.500000E+01
 8.000000E+03  0.000000E+00  1.500000E+01
 1.000000E+04  0.000000E+00  1.500000E+01
 1.200000E+04  0.000000E+00  1.500000E+01
 1.400000E+04  0.000000E+00  1.500000E+01
 1.600000E+04  0.000000E+00  1.500000E+01
 1.800000E+04  0.000000E+00  1.500000E+01
 2.000000E+04  0.000000E+00  1.500000E+01
 0.000000E+00  1.000000E+00  1.500000E+01
 2.000000E+03  1.000000E+00  1.500000E+01
 4.000000E+03  1.000000E+00  1.500000E+01
 6.000000E+03  1.000000E+00  1.500000E+01
 8.000000E+03  1.000000E+00  1.500000E+01
 1.000000E+04  1.000000E+00  1.500000E+01
 1.200000E+04  1.000000E+00  1.500000E+01
 1.400000E+04  1.000000E+00  1.500000E+01
 1.600000E+04  1.000000E+00  1.500000E+01
 1.800000E+04  1.000000E+00  1.500000E+01
 2.000000E+04  1.000000E+00  1.500000E+01
 0.000000E+00  0.000000E+00  2.000000E+01
 2.000000E+03  0.000000E+00  2.000000E+01
 4.000000E+03  0.000000E+00  2.000000E+01
 6.000000E+03  0.000000E+00  2.000000E+01
 8.000000E+03  0.000000E+00  2.000000E+01
 1.000000E+04  0.000000E+00  2.000000E+01
 1.200000E+04  0.000000E+00  2.000000E+01
 1.400000E+04  0.000000E+00  2.000000E+01
 1.600000E+04  0.000000E+00  2.000000E+01
 1.800000E+04  0.000000E+00  2.000000E+01
 2.000000E+04  0.000000E+00  2.000000E+01
 0.000000E+00  1.000000E+00  2.000000E+01
 2.000000E+03  1.000000E+00  2.000000E+01
 4.000000E+03  1.000000E+00  2.000000E+01
 6.000000E+03  1.000000E+00  2.000000E+01
 8.000000E+03  1.000000E+00  2.000000E+01
 1.000000E+04  1.000000E+00  2.000000E+01
 1.200000E+04  1.000000E+00  2.000000E+01
 1.400000E+04  1.000000E+00  2.000000E+01
 1.600000E+04  1.000000E+00  2.000000E+01
 1.800000E+04  1.000000E+00  2.000000E+01
 2.000000E+04  1.000000E+00  2.000000E+01
 0.000000E+00  0.000000E+00  2.500000E+01
 2.000000E+03  0.000000E+00  2.500000E+01
 4.000000E+03  0.000000E+00  2.500000E+01
 6.000000E+03  0.000000E+00  2.500000E+01
 8.000000E+03  0.000000E+00  2.500000E+01
 1.000000E+04  0.000000E+00  2.500000E+01
 1.200000E+04  0.000000E+00  2.500000E+01
 1.400000E+04  0.000000E+00  2.500000E+01
 1.600000E+04  0.000000E+00  2.500000E+01
 1.800000E+04  0.000000E+00  2.500000E+01
 2.000000E+04  0.000000E+00  2.500000E+01
 0.000000E+00  1.000000E+00  2.500000E+01
 2.000000E+03  1.000000E+00  2.500000E+01
 4.000000E+03  1.000000E+00  2.500000E+01
 6.000000E+03  1.000000E+00  2.500000E+01
 8.000000E+03  1.000000E+00  2.500000E+01
 1.000000E+04  1.000000E+00  2.500000E+01
 1.200000E+04  1.000000E+00  2.500000E+01
 1.400000E+04  1.000000E+00  2.500000E+01
 1.600000E+04  1.000000E+00  2.500000E+01
 1.800000E+04  1.000000E+00  2.500000E+01
 2.000000E+04  1.000000E+00  2.500000E+01
 0.000000E+00  0.000000E+00  3.000000E+01
 2.000000E+03  0.000000E+00  3.000000E+01
 4.000000E+03  0.000000E+00  3.000000E+01
 6.000000E+03  0.000000E+00  3.000000E+01
 8.000000E+03  0.000000E+00  3.000000E+01
 1.000000E+04  0.000000E+00  3.000000E+01
 1.200000E+04  0.000000E+00  3.000000E+01
 1.400000E+04  0.000000E+00  3.000000E+01
 1.600000E+04  0.000000E+00  3.000000E+01
 1.800000E+04  0.000000E+00  3.000000E+01
 2.000000E+04  0.000000E+00  3.000000E+01
 0.000000E+00  1.000000E+00  3.000000E+01
 2.000000E+03  1.000000E+00  3.000000E+01
 4.000000E+03  1.000000E+00  3.000000E+01
 6.000000E+03  1.000000E+00  3.000000E+01
 8.000000E+03  1.000000E+00  3.000000E+01
 1.000000E+04  1.000000E+00  3.000000E+01
 1.200000E+04  1.000000E+00  3.000000E+01
 1.400000E+04  1.000000E+00  3.000000E+01
 1.600000E+04  1.000000E+00  3.000000E+01
 1.800000E+04  1.000000E+00  3.000000E+01
 2.000000E+04  1.000000E+00  3.000000E+01
 0.000000E+00  0.000000E+00  3.500000E+01
 2.000000E+03  0.000000E+00  3.500000E+01
 4.000000E+03  0.000000E+00  3.500000E+01
 6.000000E+03  0.000000E+00  3.500000E+01
 8.000000E+03  0.000000E+00  3.500000E+01
 1.000000E+04  0.000000E+00  3.500000E+01
 1.200000E+04  0.000000E+00  3.500000E+01
 1.400000E+04  0.000000E+00  3.500000E+01
 1.600000E+04  0.000000E+00  3.500000E+01
 1.800000E+04  0.000000E+00  3.500000E+01
 2.000000E+04  0.000000E+00  3.500000E+01
 0.000000E+00  1.000000E+00  3.500000E+01
 2.000000E+03  1.000000E+00  3.500000E+01
 4.000000E+03  1.000000E+00  3.500000E+01
 6.000000E+03  1.000000E+00  3.500000E+01
 8.000000E+03  1.000000E+00  3.500000E+01
 1.000000E+04  1.000000E+00  3.500000E+01
 1.200000E+04  1.000000E+00  3.500000E+01
 1.400000E+04  1.000000E+00  3.500000E+01
 1.600000E+04  1.000000E+00  3.500000E+01
 1.800000E+04  1.000000E+00  3.500000E+01
 2.000000E+04  1.000000E+00  3.500000E+01
 0.000000E+00  0.000000E+00  4.000000E+01
 2.000000E+03  0.000000E+00  4.000000E+01
 4.000000E+03  0.000000E+00  4.000000E+01
 6.000000E+03  0.000000E+00  4.000000E+01
 8.000000E+03  0.000000E+00  4.000000E+01
 1.000000E+04  0.000000E+00  4.000000E+01
 1.200000E+04  0.000000E+00  4.000000E+01
 1.400000E+04  0.000000E+00  4.000000E+01
 1.600000E+04  0.000000E+00  4.000000E+01
 1.800000E+04  0.000000E+00  4.000000E+01
 2.000000E+04  0.000000E+00  4.000000E+01
 0.000000E+00  1.000000E+00  4.000000E+01
 2.000000E+03  1.000000E+00  4.000000E+01
 4.000000E+03  1.000000E+00  4.000000E+01
 6.000000E+03  1.000000E+00  4.000000E+01
 8.000000E+03  1.000000E+00  4.000000E+01
 1.000000E+04  1.000000E+00  4.000000E+01
 1.200000E+04  1.000000E+00  4.000000E+01
 1.400000E+04  1.000000E+00  4.000000E+01
 1.600000E+04  1.000000E+00  4.000000E+01
 1.800000E+04  1.000000E+00  4.000000E+01
 2.000000E+04  1.000000E+00  4.000000E+01
 0.000000E+00  0.000000E+00  4.500000E+01
 2.000000E+03  0.000000E+00  4.500000E+01
 4.000000E+03  0.000000E+00  4.500000E+01
 6.000000E+03  0.000000E+00  4.500000E+01
 8.000000E+03  0.000000E+00  4.500000E+01
 1.000000E+04  0.000000E+00  4.500000E+01
 1.200000E+04  0.000000E+00  4.500000E+01
 1.400000E+04  0.000000E+00  4.500000E+01
 1.600000E+04  0.000000E+00  4.500000E+01
 1.800000E+04  0.000000E+00  4.500000E+01
 2.000000E+04  0.000000E+00  4.500000E+01
 0.000000E+00  1.000000E+00  4.500000E+01
 2.000000E+03  1.000000E+00  4.500000E+01
 4.000000E+03  1.000000E+00  4.500000E+01
 6.000000E+03  1.000000E+00  4.500000E+01
 8.000000E+03  1.000000E+00  4.500000E+01
 1.000000E+04  1.000000E+00  4.500000E+01
 1.200000E+04  1.000000E+00  4.500000E+01
 1.400000E+04  1.000000E+00  4.500000E+01
 1.600000E+04  1.000000E+00  4.500000E+01
 1.800000E+04  1.000000E+00  4.500000E+01
 2.000000E+04  1.000000E+00  4.500000E+01
 0.000000E+00  0.000000E+00  5.000000E+01
 2.000000E+03  0.000000E+00  5.000000E+01
 4.000000E+03  0.000000E+00  5.000000E+01
 6.000000E+03  0.000000E+00  5.000000E+01
 8.000000E+03  0.000000E+00  5.000000E+01
 1.000000E+04  0.000000E+00  5.000000E+01
 1.200000E+04  0.000000E+00  5.000000E+01
 1.400000E+04  0.000000E+00  5.000000E+01
 1.600000E+04  0.000000E+00  5.000000E+01
 1.800000E+04  0.000000E+00  5.000000E+01
 2.000000E+04  0.000000E+00  5.000000E+01
 0.000000E+00  1.000000E+00  5.000000E+01
 2.000000E+03  1.000000E+00  5.000000E+01
 4.000000E+03  1.000000E+00  5.000000E+01
 6.000000E+03  1.000000E+00  5.000000E+01
[...]
CELL_DATA      200
SCALARS Porosity             float 1
LOOKUP_TABLE default
 4.377100E-01  4.377100E-01  4.377100E-01  4.377100E-01  4.377100E-01  4.377100E-01  4.377100E-01  4.377100E-01  4.377100E-01  4.377100E-01
 4.377100E-01  4.377100E-01  4.377100E-01  4.377100E-01  4.377100E-01  4.377100E-01  4.377100E-01  4.377100E-01  4.377100E-01  4.377100E-01
 4.377100E-01  4.377100E-01  4.377100E-01  4.377100E-01  4.377100E-01  4.377100E-01  4.377100E-01  4.377100E-01  4.377100E-01  4.377100E-01
 4.377100E-01  4.377100E-01  4.377100E-01  4.377100E-01  4.377100E-01  4.377100E-01  4.377100E-01  4.377100E-01  4.377100E-01  4.377100E-01
 4.377100E-01  4.377100E-01  4.377100E-01  4.377100E-01  4.377100E-01  4.377100E-01  4.377100E-01  4.377100E-01  4.377100E-01  4.377100E-01
 4.377100E-01  4.377100E-01  4.377100E-01  4.377100E-01  4.377100E-01  4.377100E-01  4.377100E-01  4.377100E-01  4.377100E-01  4.377100E-01
 4.377099E-01  4.377100E-01  4.377100E-01  4.377100E-01  4.377100E-01  4.377100E-01  4.377100E-01  4.377100E-01  4.377100E-01  4.377100E-01
 4.377099E-01  4.377100E-01  4.377100E-01  4.377100E-01  4.377100E-01  4.377100E-01  4.377100E-01  4.377100E-01  4.377100E-01  4.377100E-01
 4.377099E-01  4.377100E-01  4.377100E-01  4.377100E-01  4.377100E-01  4.377100E-01  4.377100E-01  4.377100E-01  4.377100E-01  4.377100E-01
 4.377099E-01  4.377100E-01  4.377100E-01  4.377100E-01  4.377100E-01  4.377100E-01  4.377100E-01  4.377100E-01  4.377100E-01  4.377100E-01
 4.377099E-01  4.377100E-01  4.377100E-01  4.377100E-01  4.377100E-01  4.377100E-01  4.377100E-01  4.377100E-01  4.377100E-01  4.377100E-01
 4.377099E-01  4.377100E-01  4.377100E-01  4.377100E-01  4.377100E-01  4.377100E-01  4.377100E-01  4.377100E-01  4.377100E-01  4.377100E-01
 4.377099E-01  4.377100E-01  4.377100E-01  4.377100E-01  4.377100E-01  4.377100E-01  4.377100E-01  4.377100E-01  4.377100E-01  4.377100E-01
 4.377099E-01  4.377100E-01  4.377100E-01  4.377100E-01  4.377100E-01  4.377100E-01  4.377100E-01  4.377100E-01  4.377100E-01  4.377100E-01
 4.377100E-01  4.377100E-01  4.377100E-01  4.377100E-01  4.377100E-01  4.377100E-01  4.377100E-01  4.377100E-01  4.377100E-01  4.377100E-01
 4.377100E-01  4.377100E-01  4.377100E-01  4.377100E-01  4.377100E-01  4.377100E-01  4.377100E-01  4.377100E-01  4.377100E-01  4.377100E-01
 4.377100E-01  4.377100E-01  4.377100E-01  4.377100E-01  4.377100E-01  4.377100E-01  4.377100E-01  4.377100E-01  4.377100E-01  4.377100E-01
 4.377100E-01  4.377100E-01  4.377100E-01  4.377100E-01  4.377100E-01  4.377100E-01  4.377100E-01  4.377100E-01  4.377100E-01  4.377100E-01
 4.377100E-01  4.377100E-01  4.377100E-01  4.377100E-01  4.377100E-01  4.377100E-01  4.377100E-01  4.377100E-01  4.377100E-01  4.377100E-01
 4.377100E-01  4.377100E-01  4.377100E-01  4.377100E-01  4.377100E-01  4.377100E-01  4.377100E-01  4.377100E-01  4.377100E-01  4.377100E-01


SCALARS Permeability         float 1
LOOKUP_TABLE default
 8.829805E-13  8.829805E-13  8.829804E-13  8.829804E-13  8.829804E-13  8.829804E-13  8.829804E-13  8.829804E-13  8.829804E-13  8.829804E-13
 8.829805E-13  8.829805E-13  8.829804E-13  8.829804E-13  8.829804E-13  8.829804E-13  8.829804E-13  8.829804E-13  8.829804E-13  8.829804E-13
 8.829805E-13  8.829805E-13  8.829804E-13  8.829804E-13  8.829804E-13  8.829804E-13  8.829804E-13  8.829804E-13  8.829804E-13  8.829804E-13
 8.829805E-13  8.829805E-13  8.829804E-13  8.829804E-13  8.829804E-13  8.829804E-13  8.829804E-13  8.829804E-13  8.829804E-13  8.829804E-13
 8.829805E-13  8.829805E-13  8.829804E-13  8.829804E-13  8.829804E-13  8.829804E-13  8.829804E-13  8.829804E-13  8.829804E-13  8.829804E-13
 8.829805E-13  8.829805E-13  8.829804E-13  8.829804E-13  8.829804E-13  8.829804E-13  8.829804E-13  8.829804E-13  8.829804E-13  8.829804E-13
 8.829800E-13  8.829805E-13  8.829804E-13  8.829804E-13  8.829804E-13  8.829804E-13  8.829804E-13  8.829804E-13  8.829804E-13  8.829804E-13
 8.829800E-13  8.829805E-13  8.829804E-13  8.829804E-13  8.829804E-13  8.829804E-13  8.829804E-13  8.829804E-13  8.829804E-13  8.829804E-13
 8.829800E-13  8.829805E-13  8.829804E-13  8.829804E-13  8.829804E-13  8.829804E-13  8.829804E-13  8.829804E-13  8.829804E-13  8.829804E-13
 8.829800E-13  8.829805E-13  8.829804E-13  8.829804E-13  8.829804E-13  8.829804E-13  8.829804E-13  8.829804E-13  8.829804E-13  8.829804E-13
 8.829800E-13  8.829805E-13  8.829804E-13  8.829804E-13  8.829804E-13  8.829804E-13  8.829804E-13  8.829804E-13  8.829804E-13  8.829804E-13
 8.829800E-13  8.829805E-13  8.829805E-13  8.829804E-13  8.829804E-13  8.829804E-13  8.829804E-13  8.829804E-13  8.829804E-13  8.829804E-13
 8.829800E-13  8.829805E-13  8.829805E-13  8.829804E-13  8.829804E-13  8.829804E-13  8.829804E-13  8.829804E-13  8.829804E-13  8.829804E-13
 8.829800E-13  8.829805E-13  8.829805E-13  8.829804E-13  8.829804E-13  8.829804E-13  8.829804E-13  8.829804E-13  8.829804E-13  8.829804E-13
 8.829806E-13  8.829805E-13  8.829805E-13  8.829804E-13  8.829804E-13  8.829804E-13  8.829804E-13  8.829804E-13  8.829804E-13  8.829804E-13
 8.829806E-13  8.829805E-13  8.829805E-13  8.829804E-13  8.829804E-13  8.829804E-13  8.829804E-13  8.829804E-13  8.829804E-13  8.829804E-13
 8.829806E-13  8.829805E-13  8.829805E-13  8.829804E-13  8.829804E-13  8.829804E-13  8.829804E-13  8.829804E-13  8.829804E-13  8.829804E-13
 8.829806E-13  8.829805E-13  8.829805E-13  8.829805E-13  8.829804E-13  8.829804E-13  8.829804E-13  8.829804E-13  8.829804E-13  8.829804E-13
 8.829806E-13  8.829805E-13  8.829805E-13  8.829805E-13  8.829804E-13  8.829804E-13  8.829804E-13  8.829804E-13  8.829804E-13  8.829804E-13
 8.829806E-13  8.829805E-13  8.829805E-13  8.829805E-13  8.829804E-13  8.829804E-13  8.829804E-13  8.829804E-13  8.829804E-13  8.829804E-13


SCALARS Liquid_Pressure      float 1
LOOKUP_TABLE default
 8.223531E+06  7.860351E+06  7.702909E+06  7.619366E+06  7.572499E+06  7.544719E+06  7.526133E+06  7.511198E+06  7.497290E+06  7.483763E+06
 8.178366E+06  7.815190E+06  7.657753E+06  7.574212E+06  7.527345E+06  7.499566E+06  7.480980E+06  7.466046E+06  7.452139E+06  7.438611E+06
 8.133207E+06  7.770031E+06  7.612597E+06  7.529058E+06  7.482193E+06  7.454414E+06  7.435829E+06  7.420895E+06  7.406988E+06  7.393461E+06
 8.088053E+06  7.724873E+06  7.567443E+06  7.483906E+06  7.437042E+06  7.409264E+06  7.390680E+06  7.375746E+06  7.361839E+06  7.348313E+06
 8.042906E+06  7.679716E+06  7.522290E+06  7.438755E+06  7.391892E+06  7.364115E+06  7.345531E+06  7.330598E+06  7.316692E+06  7.303165E+06
 7.997765E+06  7.634560E+06  7.477138E+06  7.393605E+06  7.346744E+06  7.318967E+06  7.300384E+06  7.285451E+06  7.271545E+06  7.258019E+06
 7.952630E+06  7.589405E+06  7.431988E+06  7.348457E+06  7.301597E+06  7.273821E+06  7.255238E+06  7.240305E+06  7.226400E+06  7.212874E+06
 7.907489E+06  7.544252E+06  7.386838E+06  7.303310E+06  7.256451E+06  7.228676E+06  7.210093E+06  7.195161E+06  7.181256E+06  7.167730E+06
 7.862343E+06  7.499100E+06  7.341690E+06  7.258164E+06  7.211306E+06  7.183532E+06  7.164949E+06  7.150018E+06  7.136113E+06  7.122588E+06
 7.817190E+06  7.453950E+06  7.296544E+06  7.213020E+06  7.166163E+06  7.138389E+06  7.119807E+06  7.104876E+06  7.090971E+06  7.077447E+06
 7.772031E+06  7.408800E+06  7.251398E+06  7.167876E+06  7.121020E+06  7.093248E+06  7.074666E+06  7.059735E+06  7.045831E+06  7.032307E+06
 7.726867E+06  7.363652E+06  7.206254E+06  7.122734E+06  7.075880E+06  7.048107E+06  7.029527E+06  7.014596E+06  7.000692E+06  6.987168E+06
 7.681696E+06  7.318505E+06  7.161111E+06  7.077593E+06  7.030740E+06  7.002968E+06  6.984388E+06  6.969458E+06  6.955554E+06  6.942031E+06
 7.636520E+06  7.273360E+06  7.115970E+06  7.032454E+06  6.985602E+06  6.957831E+06  6.939251E+06  6.924321E+06  6.910418E+06  6.896895E+06
 7.591338E+06  7.228215E+06  7.070829E+06  6.987316E+06  6.940464E+06  6.912694E+06  6.894115E+06  6.879186E+06  6.865283E+06  6.851760E+06
 7.546162E+06  7.183072E+06  7.025690E+06  6.942179E+06  6.895329E+06  6.867559E+06  6.848980E+06  6.834051E+06  6.820149E+06  6.806626E+06
 7.500992E+06  7.137930E+06  6.980552E+06  6.897043E+06  6.850194E+06  6.822425E+06  6.803847E+06  6.788918E+06  6.775016E+06  6.761494E+06
 7.455828E+06  7.092790E+06  6.935416E+06  6.851908E+06  6.805061E+06  6.777293E+06  6.758715E+06  6.743786E+06  6.729885E+06  6.716363E+06
 7.410670E+06  7.047650E+06  6.890280E+06  6.806775E+06  6.759929E+06  6.732162E+06  6.713584E+06  6.698656E+06  6.684755E+06  6.671233E+06
 7.365518E+06  7.002512E+06  6.845146E+06  6.761643E+06  6.714798E+06  6.687031E+06  6.668454E+06  6.653527E+06  6.639626E+06  6.626105E+06


SCALARS Temperature          float 1
LOOKUP_TABLE default
 1.500423E+02  1.500208E+02  1.500115E+02  1.500065E+02  1.500038E+02  1.500021E+02  1.500010E+02  1.500001E+02  1.499993E+02  1.499985E+02
 1.500423E+02  1.500208E+02  1.500115E+02  1.500065E+02  1.500038E+02  1.500021E+02  1.500010E+02  1.500001E+02  1.499993E+02  1.499985E+02
 1.500423E+02  1.500208E+02  1.500115E+02  1.500065E+02  1.500038E+02  1.500021E+02  1.500010E+02  1.500001E+02  1.499993E+02  1.499985E+02
 1.500423E+02  1.500208E+02  1.500115E+02  1.500066E+02  1.500038E+02  1.500021E+02  1.500010E+02  1.500001E+02  1.499993E+02  1.499985E+02
 1.500423E+02  1.500208E+02  1.500115E+02  1.500066E+02  1.500038E+02  1.500021E+02  1.500010E+02  1.500001E+02  1.499993E+02  1.499985E+02
 1.500423E+02  1.500208E+02  1.500115E+02  1.500066E+02  1.500038E+02  1.500021E+02  1.500010E+02  1.500001E+02  1.499993E+02  1.499985E+02
 1.500422E+02  1.500208E+02  1.500115E+02  1.500066E+02  1.500038E+02  1.500021E+02  1.500010E+02  1.500001E+02  1.499993E+02  1.499985E+02
 1.500422E+02  1.500208E+02  1.500115E+02  1.500066E+02  1.500038E+02  1.500021E+02  1.500010E+02  1.500001E+02  1.499993E+02  1.499985E+02
 1.500422E+02  1.500209E+02  1.500115E+02  1.500066E+02  1.500038E+02  1.500021E+02  1.500010E+02  1.500001E+02  1.499993E+02  1.499985E+02
 1.500422E+02  1.500209E+02  1.500115E+02  1.500066E+02  1.500038E+02  1.500021E+02  1.500010E+02  1.500001E+02  1.499993E+02  1.499985E+02
 1.500422E+02  1.500209E+02  1.500115E+02  1.500066E+02  1.500038E+02  1.500021E+02  1.500010E+02  1.500001E+02  1.499993E+02  1.499985E+02
 1.500422E+02  1.500209E+02  1.500115E+02  1.500066E+02  1.500038E+02  1.500021E+02  1.500010E+02  1.500001E+02  1.499993E+02  1.499985E+02
 1.500423E+02  1.500209E+02  1.500115E+02  1.500066E+02  1.500038E+02  1.500021E+02  1.500010E+02  1.500001E+02  1.499993E+02  1.499985E+02
 1.500423E+02  1.500209E+02  1.500115E+02  1.500066E+02  1.500038E+02  1.500021E+02  1.500010E+02  1.500002E+02  1.499993E+02  1.499985E+02
 1.500424E+02  1.500209E+02  1.500115E+02  1.500066E+02  1.500038E+02  1.500021E+02  1.500010E+02  1.500002E+02  1.499993E+02  1.499985E+02
 1.500424E+02  1.500209E+02  1.500115E+02  1.500066E+02  1.500038E+02  1.500021E+02  1.500010E+02  1.500002E+02  1.499993E+02  1.499985E+02
 1.500424E+02  1.500209E+02  1.500115E+02  1.500066E+02  1.500038E+02  1.500021E+02  1.500010E+02  1.500002E+02  1.499993E+02  1.499985E+02
 1.500424E+02  1.500209E+02  1.500115E+02  1.500066E+02  1.500038E+02  1.500021E+02  1.500010E+02  1.500002E+02  1.499993E+02  1.499985E+02
 1.500424E+02  1.500209E+02  1.500115E+02  1.500066E+02  1.500038E+02  1.500021E+02  1.500010E+02  1.500002E+02  1.499993E+02  1.499985E+02
 1.500424E+02  1.500209E+02  1.500115E+02  1.500066E+02  1.500038E+02  1.500021E+02  1.500010E+02  1.500002E+02  1.499993E+02  1.499985E+02


SCALARS pH                   float 1
LOOKUP_TABLE default
 6.144311E+00  6.144279E+00  6.144265E+00  6.144257E+00  6.144253E+00  6.144251E+00  6.144249E+00  6.144248E+00  6.144247E+00  6.144245E+00
 6.144311E+00  6.144279E+00  6.144265E+00  6.144257E+00  6.144253E+00  6.144251E+00  6.144249E+00  6.144248E+00  6.144247E+00  6.144245E+00
 6.144311E+00  6.144279E+00  6.144265E+00  6.144257E+00  6.144253E+00  6.144251E+00  6.144249E+00  6.144248E+00  6.144247E+00  6.144245E+00
 6.144311E+00  6.144279E+00  6.144265E+00  6.144257E+00  6.144253E+00  6.144251E+00  6.144249E+00  6.144248E+00  6.144247E+00  6.144245E+00
 6.144311E+00  6.144279E+00  6.144265E+00  6.144257E+00  6.144253E+00  6.144251E+00  6.144249E+00  6.144248E+00  6.144247E+00  6.144245E+00
 6.144311E+00  6.144279E+00  6.144265E+00  6.144257E+00  6.144253E+00  6.144251E+00  6.144249E+00  6.144248E+00  6.144247E+00  6.144246E+00
 6.144313E+00  6.144279E+00  6.144265E+00  6.144258E+00  6.144253E+00  6.144251E+00  6.144249E+00  6.144248E+00  6.144247E+00  6.144246E+00
 6.144313E+00  6.144279E+00  6.144265E+00  6.144258E+00  6.144253E+00  6.144251E+00  6.144249E+00  6.144248E+00  6.144247E+00  6.144246E+00
 6.144313E+00  6.144279E+00  6.144265E+00  6.144258E+00  6.144253E+00  6.144251E+00  6.144249E+00  6.144248E+00  6.144247E+00  6.144246E+00
 6.144313E+00  6.144279E+00  6.144265E+00  6.144258E+00  6.144253E+00  6.144251E+00  6.144249E+00  6.144248E+00  6.144247E+00  6.144246E+00
 6.144313E+00  6.144279E+00  6.144265E+00  6.144258E+00  6.144253E+00  6.144251E+00  6.144249E+00  6.144248E+00  6.144247E+00  6.144246E+00
 6.144313E+00  6.144279E+00  6.144265E+00  6.144258E+00  6.144253E+00  6.144251E+00  6.144249E+00  6.144248E+00  6.144247E+00  6.144246E+00
 6.144313E+00  6.144279E+00  6.144265E+00  6.144258E+00  6.144253E+00  6.144251E+00  6.144249E+00  6.144248E+00  6.144247E+00  6.144246E+00
 6.144313E+00  6.144279E+00  6.144265E+00  6.144258E+00  6.144253E+00  6.144251E+00  6.144249E+00  6.144248E+00  6.144247E+00  6.144246E+00
 6.144311E+00  6.144279E+00  6.144265E+00  6.144258E+00  6.144253E+00  6.144251E+00  6.144249E+00  6.144248E+00  6.144247E+00  6.144246E+00
 6.144311E+00  6.144279E+00  6.144265E+00  6.144258E+00  6.144253E+00  6.144251E+00  6.144249E+00  6.144248E+00  6.144247E+00  6.144246E+00
 6.144311E+00  6.144279E+00  6.144265E+00  6.144258E+00  6.144253E+00  6.144251E+00  6.144249E+00  6.144248E+00  6.144247E+00  6.144246E+00
 6.144311E+00  6.144279E+00  6.144265E+00  6.144258E+00  6.144253E+00  6.144251E+00  6.144249E+00  6.144248E+00  6.144247E+00  6.144246E+00
 6.144311E+00  6.144279E+00  6.144265E+00  6.144258E+00  6.144253E+00  6.144251E+00  6.144249E+00  6.144248E+00  6.144247E+00  6.144246E+00
 6.144311E+00  6.144279E+00  6.144265E+00  6.144258E+00  6.144253E+00  6.144251E+00  6.144249E+00  6.144248E+00  6.144247E+00  6.144246E+00


SCALARS Total_H+             float 1
LOOKUP_TABLE default
-3.048290E-03 -3.049039E-03 -3.049366E-03 -3.049541E-03 -3.049639E-03 -3.049697E-03 -3.049736E-03 -3.049767E-03 -3.049796E-03 -3.049824E-03
-3.048290E-03 -3.049038E-03 -3.049366E-03 -3.049540E-03 -3.049638E-03 -3.049697E-03 -3.049736E-03 -3.049767E-03 -3.049796E-03 -3.049823E-03
-3.048290E-03 -3.049038E-03 -3.049366E-03 -3.049540E-03 -3.049638E-03 -3.049696E-03 -3.049735E-03 -3.049766E-03 -3.049795E-03 -3.049823E-03
-3.048289E-03 -3.049037E-03 -3.049365E-03 -3.049540E-03 -3.049638E-03 -3.049696E-03 -3.049735E-03 -3.049766E-03 -3.049795E-03 -3.049822E-03
-3.048289E-03 -3.049037E-03 -3.049365E-03 -3.049539E-03 -3.049637E-03 -3.049696E-03 -3.049735E-03 -3.049766E-03 -3.049795E-03 -3.049822E-03
-3.048289E-03 -3.049037E-03 -3.049364E-03 -3.049539E-03 -3.049637E-03 -3.049695E-03 -3.049734E-03 -3.049765E-03 -3.049794E-03 -3.049822E-03
-3.048262E-03 -3.049036E-03 -3.049364E-03 -3.049538E-03 -3.049637E-03 -3.049695E-03 -3.049734E-03 -3.049765E-03 -3.049794E-03 -3.049821E-03
-3.048261E-03 -3.049036E-03 -3.049363E-03 -3.049538E-03 -3.049636E-03 -3.049694E-03 -3.049733E-03 -3.049765E-03 -3.049793E-03 -3.049821E-03
-3.048261E-03 -3.049035E-03 -3.049363E-03 -3.049538E-03 -3.049636E-03 -3.049694E-03 -3.049733E-03 -3.049764E-03 -3.049793E-03 -3.049821E-03
-3.048260E-03 -3.049035E-03 -3.049363E-03 -3.049537E-03 -3.049635E-03 -3.049694E-03 -3.049733E-03 -3.049764E-03 -3.049793E-03 -3.049820E-03
-3.048260E-03 -3.049034E-03 -3.049362E-03 -3.049537E-03 -3.049635E-03 -3.049693E-03 -3.049732E-03 -3.049764E-03 -3.049792E-03 -3.049820E-03
-3.048259E-03 -3.049034E-03 -3.049362E-03 -3.049536E-03 -3.049635E-03 -3.049693E-03 -3.049732E-03 -3.049763E-03 -3.049792E-03 -3.049820E-03
-3.048258E-03 -3.049033E-03 -3.049361E-03 -3.049536E-03 -3.049634E-03 -3.049693E-03 -3.049732E-03 -3.049763E-03 -3.049792E-03 -3.049819E-03
-3.048258E-03 -3.049033E-03 -3.049361E-03 -3.049536E-03 -3.049634E-03 -3.049692E-03 -3.049731E-03 -3.049763E-03 -3.049791E-03 -3.049819E-03
-3.048280E-03 -3.049033E-03 -3.049361E-03 -3.049535E-03 -3.049634E-03 -3.049692E-03 -3.049731E-03 -3.049762E-03 -3.049791E-03 -3.049819E-03
-3.048280E-03 -3.049032E-03 -3.049360E-03 -3.049535E-03 -3.049633E-03 -3.049692E-03 -3.049731E-03 -3.049762E-03 -3.049791E-03 -3.049818E-03
-3.048280E-03 -3.049032E-03 -3.049360E-03 -3.049534E-03 -3.049633E-03 -3.049691E-03 -3.049730E-03 -3.049761E-03 -3.049790E-03 -3.049818E-03
-3.048280E-03 -3.049031E-03 -3.049359E-03 -3.049534E-03 -3.049632E-03 -3.049691E-03 -3.049730E-03 -3.049761E-03 -3.049790E-03 -3.049818E-03
-3.048280E-03 -3.049031E-03 -3.049359E-03 -3.049534E-03 -3.049632E-03 -3.049690E-03 -3.049729E-03 -3.049761E-03 -3.049790E-03 -3.049817E-03
-3.048279E-03 -3.049030E-03 -3.049359E-03 -3.049533E-03 -3.049632E-03 -3.049690E-03 -3.049729E-03 -3.049760E-03 -3.049789E-03 -3.049817E-03


SCALARS Total_SiO2(aq)       float 1
LOOKUP_TABLE default
 1.039567E-02  1.039382E-02  1.039302E-02  1.039260E-02  1.039237E-02  1.039223E-02  1.039213E-02  1.039206E-02  1.039199E-02  1.039192E-02
 1.039567E-02  1.039382E-02  1.039302E-02  1.039260E-02  1.039237E-02  1.039223E-02  1.039213E-02  1.039206E-02  1.039199E-02  1.039192E-02
 1.039567E-02  1.039383E-02  1.039302E-02  1.039260E-02  1.039237E-02  1.039223E-02  1.039213E-02  1.039206E-02  1.039199E-02  1.039192E-02
 1.039567E-02  1.039383E-02  1.039303E-02  1.039260E-02  1.039237E-02  1.039223E-02  1.039213E-02  1.039206E-02  1.039199E-02  1.039192E-02
 1.039567E-02  1.039383E-02  1.039303E-02  1.039260E-02  1.039237E-02  1.039223E-02  1.039213E-02  1.039206E-02  1.039199E-02  1.039192E-02
 1.039567E-02  1.039383E-02  1.039303E-02  1.039260E-02  1.039237E-02  1.039223E-02  1.039213E-02  1.039206E-02  1.039199E-02  1.039192E-02
 1.039589E-02  1.039383E-02  1.039303E-02  1.039260E-02  1.039237E-02  1.039223E-02  1.039213E-02  1.039206E-02  1.039199E-02  1.039192E-02
 1.039589E-02  1.039383E-02  1.039303E-02  1.039260E-02  1.039237E-02  1.039223E-02  1.039213E-02  1.039206E-02  1.039199E-02  1.039192E-02
 1.039589E-02  1.039383E-02  1.039303E-02  1.039260E-02  1.039237E-02  1.039223E-02  1.039213E-02  1.039206E-02  1.039199E-02  1.039192E-02
 1.039589E-02  1.039383E-02  1.039303E-02  1.039260E-02  1.039237E-02  1.039223E-02  1.039213E-02  1.039206E-02  1.039199E-02  1.039192E-02
 1.039589E-02  1.039383E-02  1.039303E-02  1.039260E-02  1.039237E-02  1.039223E-02  1.039213E-02  1.039206E-02  1.039199E-02  1.039192E-02
 1.039590E-02  1.039383E-02  1.039303E-02  1.039260E-02  1.039237E-02  1.039223E-02  1.039213E-02  1.039206E-02  1.039199E-02  1.039192E-02
 1.039590E-02  1.039383E-02  1.039303E-02  1.039260E-02  1.039237E-02  1.039223E-02  1.039213E-02  1.039206E-02  1.039199E-02  1.039192E-02
 1.039590E-02  1.039383E-02  1.039303E-02  1.039260E-02  1.039237E-02  1.039223E-02  1.039213E-02  1.039206E-02  1.039199E-02  1.039192E-02
 1.039568E-02  1.039383E-02  1.039303E-02  1.039260E-02  1.039237E-02  1.039223E-02  1.039213E-02  1.039206E-02  1.039199E-02  1.039192E-02
 1.039568E-02  1.039383E-02  1.039303E-02  1.039260E-02  1.039237E-02  1.039223E-02  1.039213E-02  1.039206E-02  1.039199E-02  1.039192E-02
 1.039568E-02  1.039383E-02  1.039303E-02  1.039260E-02  1.039237E-02  1.039223E-02  1.039213E-02  1.039206E-02  1.039199E-02  1.039192E-02
 1.039568E-02  1.039383E-02  1.039303E-02  1.039260E-02  1.039237E-02  1.039223E-02  1.039213E-02  1.039206E-02  1.039199E-02  1.039192E-02
 1.039568E-02  1.039383E-02  1.039303E-02  1.039260E-02  1.039237E-02  1.039223E-02  1.039213E-02  1.039206E-02  1.039199E-02  1.039192E-02