# vtk DataFile Version 2.0
PFLOTRAN output
ASCII
DATASET UNSTRUCTURED_GRID
POINTS         4242 float
 0.000000E+00  0.000000E+00  0.000000E+00
 2.000000E+02  0.000000E+00  0.000000E+00
 4.000000E+02  0.000000E+00  0.000000E+00
 6.000000E+02  0.000000E+00  0.000000E+00
 8.000000E+02  0.000000E+00  0.000000E+00
 1.000000E+03  0.000000E+00  0.000000E+00
 1.200000E+03  0.000000E+00  0.000000E+00
 1.400000E+03  0.000000E+00  0.000000E+00
 1.600000E+03  0.000000E+00  0.000000E+00
 1.800000E+03  0.000000E+00  0.000000E+00
 2.000000E+03  0.000000E+00  0.000000E+00
 2.200000E+03  0.000000E+00  0.000000E+00
 2.400000E+03  0.000000E+00  0.000000E+00
 2.600000E+03  0.000000E+00  0.000000E+00
 2.800000E+03  0.000000E+00  0.000000E+00
 3.000000E+03  0.000000E+00  0.000000E+00
 3.200000E+03  0.000000E+00  0.000000E+00
 3.400000E+03  0.000000E+00  0.000000E+00
 3.600000E+03  0.000000E+00  0.000000E+00
 3.800000E+03  0.000000E+00  0.000000E+00
 4.000000E+03  0.000000E+00  0.000000E+00
 4.200000E+03  0.000000E+00  0.000000E+00
 4.400000E+03  0.000000E+00  0.000000E+00
 4.600000E+03  0.000000E+00  0.000000E+00
 4.800000E+03  0.000000E+00  0.000000E+00
 5.000000E+03  0.000000E+00  0.000000E+00
 5.200000E+03  0.000000E+00  0.000000E+00
 5.400000E+03  0.000000E+00  0.000000E+00
 5.600000E+03  0.000000E+00  0.000000E+00
 5.800000E+03  0.000000E+00  0.000000E+00
 6.000000E+03  0.000000E+00  0.000000E+00
 6.200000E+03  0.000000E+00  0.000000E+00
 6.400000E+03  0.000000E+00  0.000000E+00
 6.600000E+03  0.000000E+00  0.000000E+00
 6.800000E+03  0.000000E+00  0.000000E+00
 7.000000E+03  0.000000E+00  0.000000E+00
 7.200000E+03  0.000000E+00  0.000000E+00
 7.400000E+03  0.000000E+00  0.000000E+00
 7.600000E+03  0.000000E+00  0.000000E+00
 7.800000E+03  0.000000E+00  0.000000E+00
 8.000000E+03  0.000000E+00  0.000000E+00
 8.200000E+03  0.000000E+00  0.000000E+00
 8.400000E+03  0.000000E+00  0.000000E+00
 8.600000E+03  0.000000E+00  0.000000E+00
 8.800000E+03  0.000000E+00  0.000000E+00
 9.000000E+03  0.000000E+00  0.000000E+00
 9.200000E+03  0.000000E+00  0.000000E+00
 9.400000E+03  0.000000E+00  0.000000E+00
 9.600000E+03  0.000000E+00  0.000000E+00
 9.800000E+03  0.000000E+00  0.000000E+00
 1.000000E+04  0.000000E+00  0.000000E+00
 1.020000E+04  0.000000E+00  0.000000E+00
 1.040000E+04  0.000000E+00  0.000000E+00
 1.060000E+04  0.000000E+00  0.000000E+00
 1.080000E+04  0.000000E+00  0.000000E+00
 1.100000E+04  0.000000E+00  0.000000E+00
 1.120000E+04  0.000000E+00  0.000000E+00
 1.140000E+04  0.000000E+00  0.000000E+00
 1.160000E+04  0.000000E+00  0.000000E+00
 1.180000E+04  0.000000E+00  0.000000E+00
 1.200000E+04  0.000000E+00  0.000000E+00
 1.220000E+04  0.000000E+00  0.000000E+00
 1.240000E+04  0.000000E+00  0.000000E+00
 1.260000E+04  0.000000E+00  0.000000E+00
 1.280000E+04  0.000000E+00  0.000000E+00
 1.300000E+04  0.000000E+00  0.000000E+00
 1.320000E+04  0.000000E+00  0.000000E+00
 1.340000E+04  0.000000E+00  0.000000E+00
 1.360000E+04  0.000000E+00  0.000000E+00
 1.380000E+04  0.000000E+00  0.000000E+00
 1.400000E+04  0.000000E+00  0.000000E+00
 1.420000E+04  0.000000E+00  0.000000E+00
 1.440000E+04  0.000000E+00  0.000000E+00
 1.460000E+04  0.000000E+00  0.000000E+00
 1.480000E+04  0.000000E+00  0.000000E+00
 1.500000E+04  0.000000E+00  0.000000E+00
 1.520000E+04  0.000000E+00  0.000000E+00
 1.540000E+04  0.000000E+00  0.000000E+00
 1.560000E+04  0.000000E+00  0.000000E+00
 1.580000E+04  0.000000E+00  0.000000E+00
 1.600000E+04  0.000000E+00  0.000000E+00
 1.620000E+04  0.000000E+00  0.000000E+00
 1.640000E+04  0.000000E+00  0.000000E+00
 1.660000E+04  0.000000E+00  0.000000E+00
 1.680000E+04  0.000000E+00  0.000000E+00
 1.700000E+04  0.000000E+00  0.000000E+00
 1.720000E+04  0.000000E+00  0.000000E+00
 1.740000E+04  0.000000E+00  0.000000E+00
 1.760000E+04  0.000000E+00  0.000000E+00
 1.780000E+04  0.000000E+00  0.000000E+00
 1.800000E+04  0.000000E+00  0.000000E+00
 1.820000E+04  0.000000E+00  0.000000E+00
 1.840000E+04  0.000000E+00  0.000000E+00
 1.860000E+04  0.000000E+00  0.000000E+00
 1.880000E+04  0.000000E+00  0.000000E+00
 1.900000E+04  0.000000E+00  0.000000E+00
 1.920000E+04  0.000000E+00  0.000000E+00
 1.940000E+04  0.000000E+00  0.000000E+00
 1.960000E+04  0.000000E+00  0.000000E+00
 1.980000E+04  0.000000E+00  0.000000E+00
 2.000000E+04  0.000000E+00  0.000000E+00
 0.000000E+00  1.000000E+00  0.000000E+00
 2.000000E+02  1.000000E+00  0.000000E+00
 4.000000E+02  1.000000E+00  0.000000E+00
 6.000000E+02  1.000000E+00  0.000000E+00
 8.000000E+02  1.000000E+00  0.000000E+00
 1.000000E+03  1.000000E+00  0.000000E+00
 1.200000E+03  1.000000E+00  0.000000E+00
 1.400000E+03  1.000000E+00  0.000000E+00
 1.600000E+03  1.000000E+00  0.000000E+00
 1.800000E+03  1.000000E+00  0.000000E+00
 2.000000E+03  1.000000E+00  0.000000E+00
 2.200000E+03  1.000000E+00  0.000000E+00
 2.400000E+03  1.000000E+00  0.000000E+00
 2.600000E+03  1.000000E+00  0.000000E+00
 2.800000E+03  1.000000E+00  0.000000E+00
 3.000000E+03  1.000000E+00  0.000000E+00
 3.200000E+03  1.000000E+00  0.000000E+00
 3.400000E+03  1.000000E+00  0.000000E+00
 3.600000E+03  1.000000E+00  0.000000E+00
 3.800000E+03  1.000000E+00  0.000000E+00
 4.000000E+03  1.000000E+00  0.000000E+00
 4.200000E+03  1.000000E+00  0.000000E+00
 4.400000E+03  1.000000E+00  0.000000E+00
 4.600000E+03  1.000000E+00  0.000000E+00
 4.800000E+03  1.000000E+00  0.000000E+00
 5.000000E+03  1.000000E+00  0.000000E+00
 5.200000E+03  1.000000E+00  0.000000E+00
 5.400000E+03  1.000000E+00  0.000000E+00
 5.600000E+03  1.000000E+00  0.000000E+00
 5.800000E+03  1.000000E+00  0.000000E+00
 6.000000E+03  1.000000E+00  0.000000E+00
 6.200000E+03  1.000000E+00  0.000000E+00
 6.400000E+03  1.000000E+00  0.000000E+00
 6.600000E+03  1.000000E+00  0.000000E+00
 6.800000E+03  1.000000E+00  0.000000E+00
 7.000000E+03  1.000000E+00  0.000000E+00
 7.200000E+03  1.000000E+00  0.000000E+00
 7.400000E+03  1.000000E+00  0.000000E+00
 7.600000E+03  1.000000E+00  0.000000E+00
 7.800000E+03  1.000000E+00  0.000000E+00
 8.000000E+03  1.000000E+00  0.000000E+00
 8.200000E+03  1.000000E+00  0.000000E+00
 8.400000E+03  1.000000E+00  0.000000E+00
 8.600000E+03  1.000000E+00  0.000000E+00
 8.800000E+03  1.000000E+00  0.000000E+00
 9.000000E+03  1.000000E+00  0.000000E+00
 9.200000E+03  1.000000E+00  0.000000E+00
 9.400000E+03  1.000000E+00  0.000000E+00
 9.600000E+03  1.000000E+00  0.000000E+00
 9.800000E+03  1.000000E+00  0.000000E+00
 1.000000E+04  1.000000E+00  0.000000E+00
 1.020000E+04  1.000000E+00  0.000000E+00
 1.040000E+04  1.000000E+00  0.000000E+00
 1.060000E+04  1.000000E+00  0.000000E+00
 1.080000E+04  1.000000E+00  0.000000E+00
 1.100000E+04  1.000000E+00  0.000000E+00
 1.120000E+04  1.000000E+00  0.000000E+00
 1.140000E+04  1.000000E+00  0.000000E+00
 1.160000E+04  1.000000E+00  0.000000E+00
 1.180000E+04  1.000000E+00  0.000000E+00
 1.200000E+04  1.000000E+00  0.000000E+00
 1.220000E+04  1.000000E+00  0.000000E+00
 1.240000E+04  1.000000E+00  0.000000E+00
 1.260000E+04  1.000000E+00  0.000000E+00
 1.280000E+04  1.000000E+00  0.000000E+00
 1.300000E+04  1.000000E+00  0.000000E+00
 1.320000E+04  1.000000E+00  0.000000E+00
 1.340000E+04  1.000000E+00  0.000000E+00
 1.360000E+04  1.000000E+00  0.000000E+00
 1.380000E+04  1.000000E+00  0.000000E+00
 1.400000E+04  1.000000E+00  0.000000E+00
 1.420000E+04  1.000000E+00  0.000000E+00
 1.440000E+04  1.000000E+00  0.000000E+00
 1.460000E+04  1.000000E+00  0.000000E+00
 1.480000E+04  1.000000E+00  0.000000E+00
 1.500000E+04  1.000000E+00  0.000000E+00
 1.520000E+04  1.000000E+00  0.000000E+00
 1.540000E+04  1.000000E+00  0.000000E+00
 1.560000E+04  1.000000E+00  0.000000E+00
 1.580000E+04  1.000000E+00  0.000000E+00
 1.600000E+04  1.000000E+00  0.000000E+00
 1.620000E+04  1.000000E+00  0.000000E+00
 1.640000E+04  1.000000E+00  0.000000E+00
 1.660000E+04  1.000000E+00  0.000000E+00
 1.680000E+04  1.000000E+00  0.000000E+00
 1.700000E+04  1.000000E+00  0.000000E+00
 1.720000E+04  1.000000E+00  0.000000E+00
 1.740000E+04  1.000000E+00  0.000000E+00
 1.760000E+04  1.000000E+00  0.000000E+00
 1.780000E+04  1.000000E+00  0.000000E+00
 1.800000E+04  1.000000E+00  0.000000E+00
 1.820000E+04  1.000000E+00  0.000000E+00
 1.840000E+04  1.000000E+00  0.000000E+00
 1.860000E+04  1.000000E+00  0.000000E+00
 1.880000E+04  1.000000E+00  0.000000E+00
 1.900000E+04  1.000000E+00  0.000000E+00
 1.920000E+04  1.000000E+00  0.000000E+00
 1.940000E+04  1.000000E+00  0.000000E+00
 1.960000E+04  1.000000E+00  0.000000E+00
 1.980000E+04  1.000000E+00  0.000000E+00
 2.000000E+04  1.000000E+00  0.000000E+00
 0.000000E+00  0.000000E+00  1.500000E+01
 2.000000E+02  0.000000E+00  1.500000E+01
 4.000000E+02  0.000000E+00  1.500000E+01
 6.000000E+02  0.000000E+00  1.500000E+01
 8.000000E+02  0.000000E+00  1.500000E+01
 1.000000E+03  0.000000E+00  1.500000E+01
 1.200000E+03  0.000000E+00  1.500000E+01
 1.400000E+03  0.000000E+00  1.500000E+01
 1.600000E+03  0.000000E+00  1.500000E+01
 1.800000E+03  0.000000E+00  1.500000E+01
 2.000000E+03  0.000000E+00  1.500000E+01
 2.200000E+03  0.000000E+00  1.500000E+01
 2.400000E+03  0.000000E+00  1.500000E+01
 2.600000E+03  0.000000E+00  1.500000E+01
 2.800000E+03  0.000000E+00  1.500000E+01
 3.000000E+03  0.000000E+00  1.500000E+01
 3.200000E+03  0.000000E+00  1.500000E+01
 3.400000E+03  0.000000E+00  1.500000E+01
 3.600000E+03  0.000000E+00  1.500000E+01
 3.800000E+03  0.000000E+00  1.500000E+01
 4.000000E+03  0.000000E+00  1.500000E+01
 4.200000E+03  0.000000E+00  1.500000E+01
 4.400000E+03  0.000000E+00  1.500000E+01
 4.600000E+03  0.000000E+00  1.500000E+01
 4.800000E+03  0.000000E+00  1.500000E+01
 5.000000E+03  0.000000E+00  1.500000E+01
 5.200000E+03  0.000000E+00  1.500000E+01
 5.400000E+03  0.000000E+00  1.500000E+01
 5.600000E+03  0.000000E+00  1.500000E+01
 5.800000E+03  0.000000E+00  1.500000E+01
 6.000000E+03  0.000000E+00  1.500000E+01
 6.200000E+03  0.000000E+00  1.500000E+01
 6.400000E+03  0.000000E+00  1.500000E+01
[...]
CELL_DATA     2000
SCALARS Vlx                  float 1
LOOKUP_TABLE default
 3.759567E+01  3.669149E+01  3.212551E+01  2.600667E+01  2.108212E+01  1.748303E+01  1.485732E+01  1.289393E+01  1.138189E+01  1.018519E+01
 9.215593E+00  8.414388E+00  7.741307E+00  7.167923E+00  6.673619E+00  6.243095E+00  5.864754E+00  5.529651E+00  5.230776E+00  4.962554E+00
 4.720500E+00  4.500962E+00  4.300939E+00  4.117939E+00  3.949878E+00  3.794999E+00  3.651808E+00  3.519032E+00  3.395573E+00  3.280485E+00
 3.172943E+00  3.072230E+00  2.977714E+00  2.888842E+00  2.805121E+00  2.726118E+00  2.651443E+00  2.580751E+00  2.513732E+00  2.450107E+00
 2.389623E+00  2.332055E+00  2.277196E+00  2.224859E+00  2.174875E+00  2.127088E+00  2.081356E+00  2.037550E+00  1.995551E+00  1.955249E+00
 1.916543E+00  1.879340E+00  1.843555E+00  1.809108E+00  1.775925E+00  1.743938E+00  1.713083E+00  1.683302E+00  1.654539E+00  1.626743E+00
 1.599865E+00  1.573863E+00  1.548692E+00  1.524314E+00  1.500693E+00  1.477792E+00  1.455581E+00  1.434028E+00  1.413104E+00  1.392782E+00
 1.373037E+00  1.353845E+00  1.335182E+00  1.317027E+00  1.299359E+00  1.282160E+00  1.265410E+00  1.249093E+00  1.233191E+00  1.217690E+00
 1.202574E+00  1.187829E+00  1.173441E+00  1.159398E+00  1.145688E+00  1.132299E+00  1.119219E+00  1.106438E+00  1.093946E+00  1.081734E+00
 1.069791E+00  1.058110E+00  1.046682E+00  1.035499E+00  1.024554E+00  1.013840E+00  1.003353E+00  9.930908E-01  9.830564E-01  9.732871E-01
 4.051833E+01  3.830439E+01  3.266622E+01  2.615920E+01  2.112405E+01  1.749518E+01  1.486142E+01  1.289578E+01  1.138305E+01  1.018610E+01
 9.216381E+00  8.415097E+00  7.741957E+00  7.168523E+00  6.674178E+00  6.243617E+00  5.865245E+00  5.530114E+00  5.231214E+00  4.962969E+00
 4.720895E+00  4.501339E+00  4.301299E+00  4.118284E+00  3.950209E+00  3.795316E+00  3.652114E+00  3.519326E+00  3.395857E+00  3.280759E+00
 3.173208E+00  3.072487E+00  2.977963E+00  2.889083E+00  2.805356E+00  2.726346E+00  2.651665E+00  2.580967E+00  2.513943E+00  2.450312E+00
 2.389823E+00  2.332250E+00  2.277386E+00  2.225045E+00  2.175057E+00  2.127265E+00  2.081530E+00  2.037721E+00  1.995718E+00  1.955412E+00
 1.916703E+00  1.879497E+00  1.843709E+00  1.809259E+00  1.776073E+00  1.744083E+00  1.713226E+00  1.683442E+00  1.654677E+00  1.626879E+00
 1.599999E+00  1.573994E+00  1.548822E+00  1.524442E+00  1.500818E+00  1.477916E+00  1.455703E+00  1.434147E+00  1.413222E+00  1.392899E+00
 1.373152E+00  1.353958E+00  1.335293E+00  1.317137E+00  1.299468E+00  1.282267E+00  1.265516E+00  1.249197E+00  1.233294E+00  1.217792E+00
 1.202674E+00  1.187928E+00  1.173539E+00  1.159495E+00  1.145784E+00  1.132393E+00  1.119312E+00  1.106531E+00  1.094038E+00  1.081824E+00
 1.069881E+00  1.058198E+00  1.046769E+00  1.035585E+00  1.024639E+00  1.013925E+00  1.003437E+00  9.931727E-01  9.831350E-01  9.733398E-01
 4.672860E+01  4.164195E+01  3.372997E+01  2.645142E+01  2.120262E+01  1.751699E+01  1.486810E+01  1.289833E+01  1.138440E+01  1.018706E+01
 9.217183E+00  8.415810E+00  7.742608E+00  7.169124E+00  6.674737E+00  6.244140E+00  5.865736E+00  5.530577E+00  5.231651E+00  4.963384E+00
 4.721290E+00  4.501716E+00  4.301659E+00  4.118629E+00  3.950539E+00  3.795634E+00  3.652419E+00  3.519621E+00  3.396141E+00  3.281033E+00
 3.173474E+00  3.072744E+00  2.978212E+00  2.889325E+00  2.805590E+00  2.726574E+00  2.651887E+00  2.581183E+00  2.514153E+00  2.450517E+00
 2.390023E+00  2.332445E+00  2.277577E+00  2.225231E+00  2.175238E+00  2.127443E+00  2.081704E+00  2.037891E+00  1.995885E+00  1.955576E+00
 1.916863E+00  1.879655E+00  1.843863E+00  1.809410E+00  1.776222E+00  1.744229E+00  1.713370E+00  1.683583E+00  1.654815E+00  1.627015E+00
 1.600133E+00  1.574126E+00  1.548951E+00  1.524569E+00  1.500944E+00  1.478039E+00  1.455824E+00  1.434267E+00  1.413340E+00  1.393015E+00
 1.373267E+00  1.354071E+00  1.335405E+00  1.317247E+00  1.299576E+00  1.282374E+00  1.265622E+00  1.249302E+00  1.233398E+00  1.217894E+00
 1.202775E+00  1.188027E+00  1.173638E+00  1.159592E+00  1.145880E+00  1.132488E+00  1.119406E+00  1.106623E+00  1.094129E+00  1.081915E+00
 1.069970E+00  1.058287E+00  1.046857E+00  1.035672E+00  1.024725E+00  1.014009E+00  1.003520E+00  9.932536E-01  9.832114E-01  9.733968E-01
 5.701572E+01  4.694146E+01  3.527998E+01  2.686155E+01  2.131097E+01  1.754656E+01  1.487684E+01  1.290143E+01  1.138590E+01  1.018806E+01
 9.217996E+00  8.416526E+00  7.743259E+00  7.169725E+00  6.675296E+00  6.244662E+00  5.866226E+00  5.531040E+00  5.232089E+00  4.963799E+00
 4.721685E+00  4.502092E+00  4.302019E+00  4.118973E+00  3.950870E+00  3.795951E+00  3.652725E+00  3.519915E+00  3.396425E+00  3.281308E+00
 3.173739E+00  3.073001E+00  2.978461E+00  2.889566E+00  2.805825E+00  2.726802E+00  2.652108E+00  2.581399E+00  2.514363E+00  2.450721E+00
 2.390223E+00  2.332640E+00  2.277767E+00  2.225417E+00  2.175420E+00  2.127621E+00  2.081878E+00  2.038061E+00  1.996052E+00  1.955739E+00
 1.917024E+00  1.879812E+00  1.844018E+00  1.809562E+00  1.776370E+00  1.744375E+00  1.713513E+00  1.683724E+00  1.654954E+00  1.627151E+00
 1.600267E+00  1.574257E+00  1.549080E+00  1.524697E+00  1.501069E+00  1.478163E+00  1.455946E+00  1.434387E+00  1.413458E+00  1.393132E+00
 1.373382E+00  1.354184E+00  1.335517E+00  1.317357E+00  1.299685E+00  1.282481E+00  1.265727E+00  1.249406E+00  1.233501E+00  1.217995E+00
 1.202875E+00  1.188127E+00  1.173736E+00  1.159689E+00  1.145976E+00  1.132583E+00  1.119500E+00  1.106716E+00  1.094221E+00  1.082005E+00
 1.070059E+00  1.058375E+00  1.046944E+00  1.035758E+00  1.024810E+00  1.014093E+00  1.003602E+00  9.933336E-01  9.832863E-01  9.734569E-01
 7.271311E+01  5.458275E+01  3.724416E+01  2.735640E+01  2.143928E+01  1.758118E+01  1.488691E+01  1.290488E+01  1.138750E+01  1.018909E+01
 9.218815E+00  8.417243E+00  7.743910E+00  7.170326E+00  6.675854E+00  6.245185E+00  5.866717E+00  5.531502E+00  5.232526E+00  4.964214E+00
 4.722079E+00  4.502468E+00  4.302378E+00  4.119317E+00  3.951200E+00  3.796269E+00  3.653030E+00  3.520209E+00  3.396709E+00  3.281582E+00
 3.174004E+00  3.073257E+00  2.978710E+00  2.889808E+00  2.806059E+00  2.727029E+00  2.652330E+00  2.581615E+00  2.514573E+00  2.450926E+00
 2.390423E+00  2.332835E+00  2.277957E+00  2.225603E+00  2.175602E+00  2.127799E+00  2.082052E+00  2.038232E+00  1.996218E+00  1.955903E+00
 1.917184E+00  1.879969E+00  1.844172E+00  1.809713E+00  1.776519E+00  1.744521E+00  1.713656E+00  1.683865E+00  1.655092E+00  1.627287E+00
 1.600401E+00  1.574389E+00  1.549210E+00  1.524824E+00  1.501194E+00  1.478286E+00  1.456068E+00  1.434507E+00  1.413576E+00  1.393248E+00
 1.373496E+00  1.354297E+00  1.335628E+00  1.317467E+00  1.299794E+00  1.282588E+00  1.265833E+00  1.249510E+00  1.233604E+00  1.218097E+00
 1.202976E+00  1.188226E+00  1.173834E+00  1.159786E+00  1.146071E+00  1.132677E+00  1.119593E+00  1.106808E+00  1.094312E+00  1.082095E+00
 1.070149E+00  1.058464E+00  1.047031E+00  1.035844E+00  1.024895E+00  1.014177E+00  1.003684E+00  9.934129E-01  9.833603E-01  9.735195E-01
 9.590621E+01  6.511887E+01  3.949140E+01  2.789154E+01  2.157551E+01  1.761765E+01  1.489744E+01  1.290846E+01  1.138913E+01  1.019013E+01
 9.219638E+00  8.417961E+00  7.744561E+00  7.170926E+00  6.676413E+00  6.245707E+00  5.867207E+00  5.531964E+00  5.232963E+00  4.964629E+00
 4.722474E+00  4.502844E+00  4.302738E+00  4.119661E+00  3.951530E+00  3.796586E+00  3.653335E+00  3.520503E+00  3.396993E+00  3.281856E+00
 3.174270E+00  3.073514E+00  2.978959E+00  2.890049E+00  2.806294E+00  2.727257E+00  2.652552E+00  2.581830E+00  2.514783E+00  2.451131E+00
 2.390622E+00  2.333030E+00  2.278148E+00  2.225789E+00  2.175784E+00  2.127977E+00  2.082226E+00  2.038402E+00  1.996385E+00  1.956066E+00
 1.917344E+00  1.880126E+00  1.844326E+00  1.809864E+00  1.776667E+00  1.744667E+00  1.713799E+00  1.684005E+00  1.655230E+00  1.627422E+00
 1.600534E+00  1.574520E+00  1.549339E+00  1.524951E+00  1.501320E+00  1.478410E+00  1.456189E+00  1.434627E+00  1.413694E+00  1.393364E+00
 1.373611E+00  1.354410E+00  1.335740E+00  1.317577E+00  1.299902E+00  1.282696E+00  1.265939E+00  1.249615E+00  1.233707E+00  1.218199E+00
 1.203076E+00  1.188325E+00  1.173932E+00  1.159883E+00  1.146167E+00  1.132772E+00  1.119686E+00  1.106900E+00  1.094403E+00  1.082186E+00
 1.070238E+00  1.058552E+00  1.047119E+00  1.035931E+00  1.024980E+00  1.014260E+00  1.003766E+00  9.934916E-01  9.834338E-01  9.735838E-01
 1.296926E+02  7.929716E+01  4.179338E+01  2.841316E+01  2.170640E+01  1.765254E+01  1.490754E+01  1.291191E+01  1.139073E+01  1.019116E+01
 9.220457E+00  8.418678E+00  7.745212E+00  7.171526E+00  6.676971E+00  6.246229E+00  5.867697E+00  5.532426E+00  5.233401E+00  4.965044E+00
 4.722868E+00  4.503221E+00  4.303097E+00  4.120005E+00  3.951860E+00  3.796903E+00  3.653640E+00  3.520797E+00  3.397276E+00  3.282130E+00
 3.174535E+00  3.073771E+00  2.979208E+00  2.890291E+00  2.806528E+00  2.727485E+00  2.652773E+00  2.582046E+00  2.514993E+00  2.451336E+00
 2.390822E+00  2.333224E+00  2.278338E+00  2.225975E+00  2.175965E+00  2.128154E+00  2.082400E+00  2.038572E+00  1.996552E+00  1.956229E+00
 1.917504E+00  1.880283E+00  1.844480E+00  1.810015E+00  1.776815E+00  1.744812E+00  1.713942E+00  1.684146E+00  1.655368E+00  1.627558E+00
 1.600668E+00  1.574652E+00  1.549469E+00  1.525079E+00  1.501445E+00  1.478533E+00  1.456311E+00  1.434747E+00  1.413812E+00  1.393481E+00
 1.373726E+00  1.354524E+00  1.335851E+00  1.317687E+00  1.300011E+00  1.282803E+00  1.266045E+00  1.249719E+00  1.233810E+00  1.218301E+00
 1.203177E+00  1.188424E+00  1.174030E+00  1.159980E+00  1.146263E+00  1.132866E+00  1.119780E+00  1.106993E+00  1.094495E+00  1.082276E+00
 1.070327E+00  1.058640E+00  1.047206E+00  1.036017E+00  1.025065E+00  1.014344E+00  1.003847E+00  9.935698E-01  9.835069E-01  9.736495E-01
 1.517422E+02  8.913801E+01  4.376553E+01  2.886353E+01  2.181882E+01  1.768254E+01  1.491632E+01  1.291502E+01  1.139223E+01  1.019216E+01
 9.221269E+00  8.419393E+00  7.745863E+00  7.172126E+00  6.677529E+00  6.246750E+00  5.868187E+00  5.532888E+00  5.233837E+00  4.965458E+00
 4.723262E+00  4.503596E+00  4.303456E+00  4.120349E+00  3.952190E+00  3.797220E+00  3.653945E+00  3.521091E+00  3.397560E+00  3.282404E+00
 3.174799E+00  3.074027E+00  2.979456E+00  2.890532E+00  2.806762E+00  2.727712E+00  2.652994E+00  2.582261E+00  2.515203E+00  2.451540E+00
 2.391021E+00  2.333419E+00  2.278528E+00  2.226160E+00  2.176147E+00  2.128332E+00  2.082574E+00  2.038742E+00  1.996718E+00  1.956392E+00
 1.917664E+00  1.880440E+00  1.844633E+00  1.810166E+00  1.776964E+00  1.744958E+00  1.714085E+00  1.684286E+00  1.655506E+00  1.627694E+00
 1.600801E+00  1.574783E+00  1.549598E+00  1.525206E+00  1.501570E+00  1.478657E+00  1.456432E+00  1.434866E+00  1.413930E+00  1.393597E+00
 1.373840E+00  1.354637E+00  1.335963E+00  1.317797E+00  1.300119E+00  1.282910E+00  1.266150E+00  1.249823E+00  1.233913E+00  1.218402E+00
 1.203277E+00  1.188524E+00  1.174128E+00  1.160077E+00  1.146358E+00  1.132961E+00  1.119873E+00  1.107085E+00  1.094586E+00  1.082366E+00
 1.070417E+00  1.058728E+00  1.047293E+00  1.036103E+00  1.025150E+00  1.014427E+00  1.003928E+00  9.936477E-01  9.835798E-01  9.737161E-01
 1.649791E+02  9.532778E+01  4.518186E+01  2.919357E+01  2.190140E+01  1.770478E+01  1.492305E+01  1.291757E+01  1.139358E+01  1.019312E+01
 9.222069E+00  8.420104E+00  7.746512E+00  7.172726E+00  6.678086E+00  6.247272E+00  5.868677E+00  5.533350E+00  5.234274E+00  4.965873E+00
 4.723657E+00  4.503972E+00  4.303815E+00  4.120693E+00  3.952520E+00  3.797536E+00  3.654250E+00  3.521385E+00  3.397843E+00  3.282678E+00
 3.175064E+00  3.074284E+00  2.979705E+00  2.890773E+00  2.806996E+00  2.727940E+00  2.653216E+00  2.582477E+00  2.515413E+00  2.451745E+00
 2.391221E+00  2.333614E+00  2.278718E+00  2.226346E+00  2.176328E+00  2.128509E+00  2.082747E+00  2.038912E+00  1.996885E+00  1.956556E+00
 1.917824E+00  1.880596E+00  1.844787E+00  1.810317E+00  1.777112E+00  1.745103E+00  1.714228E+00  1.684427E+00  1.655644E+00  1.627830E+00
 1.600935E+00  1.574915E+00  1.549727E+00  1.525333E+00  1.501696E+00  1.478780E+00  1.456554E+00  1.434986E+00  1.414048E+00  1.393713E+00
 1.373955E+00  1.354749E+00  1.336074E+00  1.317907E+00  1.300227E+00  1.283017E+00  1.266256E+00  1.249928E+00  1.234015E+00  1.218504E+00
 1.203378E+00  1.188623E+00  1.174225E+00  1.160173E+00  1.146454E+00  1.133055E+00  1.119967E+00  1.107177E+00  1.094677E+00  1.082456E+00
 1.070506E+00  1.058817E+00  1.047380E+00  1.036189E+00  1.025234E+00  1.014510E+00  1.004009E+00  9.937253E-01  9.836526E-01  9.737833E-01
 1.711885E+02  9.831747E+01  4.591899E+01  2.936869E+01  2.194581E+01  1.771720E+01  1.492718E+01  1.291942E+01  1.139474E+01  1.019403E+01
 9.222854E+00  8.420811E+00  7.747159E+00  7.173325E+00  6.678644E+00  6.247793E+00  5.869167E+00  5.533812E+00  5.234711E+00  4.966287E+00
 4.724051E+00  4.504348E+00  4.304174E+00  4.121037E+00  3.952849E+00  3.797853E+00  3.654555E+00  3.521678E+00  3.398127E+00  3.282952E+00
 3.175329E+00  3.074540E+00  2.979953E+00  2.891014E+00  2.807230E+00  2.728167E+00  2.653437E+00  2.582692E+00  2.515622E+00  2.451949E+00
 2.391420E+00  2.333808E+00  2.278908E+00  2.226532E+00  2.176510E+00  2.128687E+00  2.082921E+00  2.039082E+00  1.997051E+00  1.956719E+00
 1.917984E+00  1.880753E+00  1.844941E+00  1.810468E+00  1.777260E+00  1.745249E+00  1.714371E+00  1.684567E+00  1.655782E+00  1.627965E+00
 1.601068E+00  1.575046E+00  1.549856E+00  1.525460E+00  1.501821E+00  1.478903E+00  1.456675E+00  1.435106E+00  1.414166E+00  1.393829E+00
 1.374069E+00  1.354862E+00  1.336185E+00  1.318017E+00  1.300336E+00  1.283124E+00  1.266361E+00  1.250032E+00  1.234118E+00  1.218605E+00
 1.203478E+00  1.188722E+00  1.174323E+00  1.160270E+00  1.146549E+00  1.133150E+00  1.120060E+00  1.107270E+00  1.094768E+00  1.082547E+00
 1.070595E+00  1.058905E+00  1.047467E+00  1.036275E+00  1.025319E+00  1.014593E+00  1.004090E+00  9.938028E-01  9.837254E-01  9.738509E-01
 1.711934E+02  9.832191E+01  4.592237E+01  2.937108E+01  2.194762E+01  1.771867E+01  1.492842E+01  1.292049E+01  1.139569E+01  1.019488E+01
 9.223624E+00  8.421514E+00  7.747806E+00  7.173923E+00  6.679201E+00  6.248314E+00  5.869656E+00  5.534273E+00  5.235147E+00  4.966701E+00
 4.724444E+00  4.504723E+00  4.304533E+00  4.121380E+00  3.953179E+00  3.798170E+00  3.654859E+00  3.521972E+00  3.398410E+00  3.283225E+00
 3.175594E+00  3.074796E+00  2.980202E+00  2.891255E+00  2.807464E+00  2.728395E+00  2.653658E+00  2.582907E+00  2.515832E+00  2.452153E+00
 2.391619E+00  2.334003E+00  2.279098E+00  2.226717E+00  2.176691E+00  2.128864E+00  2.083094E+00  2.039252E+00  1.997218E+00  1.956882E+00
 1.918144E+00  1.880910E+00  1.845095E+00  1.810619E+00  1.777408E+00  1.745394E+00  1.714514E+00  1.684707E+00  1.655920E+00  1.628101E+00
 1.601202E+00  1.575177E+00  1.549985E+00  1.525587E+00  1.501946E+00  1.479026E+00  1.456796E+00  1.435225E+00  1.414284E+00  1.393945E+00
 1.374184E+00  1.354975E+00  1.336297E+00  1.318126E+00  1.300444E+00  1.283230E+00  1.266467E+00  1.250136E+00  1.234221E+00  1.218707E+00
 1.203578E+00  1.188821E+00  1.174421E+00  1.160367E+00  1.146645E+00  1.133244E+00  1.120153E+00  1.107362E+00  1.094860E+00  1.082637E+00
 1.070684E+00  1.058993E+00  1.047554E+00  1.036360E+00  1.025404E+00  1.014676E+00  1.004171E+00  9.938802E-01  9.837981E-01  9.739185E-01
 1.650002E+02  9.534393E+01  4.519250E+01  2.920080E+01  2.190685E+01  1.770920E+01  1.492677E+01  1.292080E+01  1.139643E+01  1.019567E+01
 9.224377E+00  8.422212E+00  7.748450E+00  7.174521E+00  6.679757E+00  6.248835E+00  5.870145E+00  5.534734E+00  5.235583E+00  4.967115E+00
 4.724838E+00  4.505099E+00  4.304892E+00  4.121724E+00  3.953508E+00  3.798486E+00  3.655164E+00  3.522265E+00  3.398693E+00  3.283499E+00
 3.175858E+00  3.075052E+00  2.980450E+00  2.891496E+00  2.807698E+00  2.728622E+00  2.653879E+00  2.583122E+00  2.516042E+00  2.452357E+00
 2.391818E+00  2.334197E+00  2.279288E+00  2.226903E+00  2.176872E+00  2.129041E+00  2.083268E+00  2.039422E+00  1.997384E+00  1.957045E+00
 1.918303E+00  1.881066E+00  1.845248E+00  1.810769E+00  1.777556E+00  1.745539E+00  1.714656E+00  1.684848E+00  1.656058E+00  1.628237E+00
 1.601335E+00  1.575308E+00  1.550114E+00  1.525714E+00  1.502071E+00  1.479150E+00  1.456918E+00  1.435345E+00  1.414402E+00  1.394061E+00
 1.374298E+00  1.355088E+00  1.336408E+00  1.318236E+00  1.300552E+00  1.283337E+00  1.266572E+00  1.250240E+00  1.234324E+00  1.218808E+00
 1.203678E+00  1.188920E+00  1.174519E+00  1.160463E+00  1.146740E+00  1.133338E+00  1.120247E+00  1.107454E+00  1.094951E+00  1.082727E+00
 1.070773E+00  1.059081E+00  1.047641E+00  1.036446E+00  1.025488E+00  1.014759E+00  1.004251E+00  9.939576E-01  9.838707E-01  9.739860E-01
 1.517773E+02  8.916461E+01  4.378295E+01  2.887544E+01  2.182786E+01  1.768988E+01  1.492253E+01  1.292040E+01  1.139698E+01  1.019641E+01
 9.225116E+00  8.422906E+00  7.749094E+00  7.175118E+00  6.680314E+00  6.249355E+00  5.870634E+00  5.535195E+00  5.236020E+00  4.967528E+00
 4.725232E+00  4.505474E+00  4.305250E+00  4.122067E+00  3.953837E+00  3.798802E+00  3.655468E+00  3.522558E+00  3.398976E+00  3.283772E+00
 3.176123E+00  3.075308E+00  2.980698E+00  2.891736E+00  2.807932E+00  2.728849E+00  2.654100E+00  2.583337E+00  2.516251E+00  2.452562E+00
 2.392018E+00  2.334391E+00  2.279477E+00  2.227088E+00  2.177054E+00  2.129219E+00  2.083441E+00  2.039592E+00  1.997550E+00  1.957208E+00
 1.918463E+00  1.881223E+00  1.845402E+00  1.810920E+00  1.777704E+00  1.745685E+00  1.714799E+00  1.684988E+00  1.656196E+00  1.628372E+00
 1.601468E+00  1.575439E+00  1.550243E+00  1.525841E+00  1.502196E+00  1.479273E+00  1.457039E+00  1.435464E+00  1.414519E+00  1.394177E+00
 1.374413E+00  1.355201E+00  1.336519E+00  1.318346E+00  1.300661E+00  1.283444E+00  1.266678E+00  1.250344E+00  1.234427E+00  1.218910E+00
 1.203778E+00  1.189019E+00  1.174617E+00  1.160560E+00  1.146836E+00  1.133433E+00  1.120340E+00  1.107546E+00  1.095042E+00  1.082817E+00
 1.070862E+00  1.059169E+00  1.047728E+00  1.036532E+00  1.025573E+00  1.014842E+00  1.004332E+00  9.940351E-01  9.839434E-01  9.740531E-01
 1.297382E+02  7.933220E+01  4.181686E+01  2.842955E+01  2.171897E+01  1.766280E+01  1.491622E+01  1.291945E+01  1.139738E+01  1.019711E+01
 9.225843E+00  8.423596E+00  7.749736E+00  7.175715E+00  6.680870E+00  6.249876E+00  5.871123E+00  5.535656E+00  5.236456E+00  4.967942E+00
 4.725625E+00  4.505849E+00  4.305608E+00  4.122410E+00  3.954166E+00  3.799118E+00  3.655772E+00  3.522852E+00  3.399259E+00  3.284045E+00
 3.176387E+00  3.075564E+00  2.980946E+00  2.891977E+00  2.808166E+00  2.729076E+00  2.654321E+00  2.583552E+00  2.516460E+00  2.452766E+00
 2.392217E+00  2.334586E+00  2.279667E+00  2.227273E+00  2.177235E+00  2.129396E+00  2.083615E+00  2.039761E+00  1.997716E+00  1.957370E+00
 1.918623E+00  1.881380E+00  1.845556E+00  1.811071E+00  1.777852E+00  1.745830E+00  1.714942E+00  1.685128E+00  1.656334E+00  1.628508E+00
 1.601601E+00  1.575570E+00  1.550372E+00  1.525968E+00  1.502321E+00  1.479396E+00  1.457160E+00  1.435584E+00  1.414637E+00  1.394293E+00
 1.374527E+00  1.355314E+00  1.336630E+00  1.318456E+00  1.300769E+00  1.283551E+00  1.266783E+00  1.250448E+00  1.234529E+00  1.219011E+00
 1.203879E+00  1.189118E+00  1.174714E+00  1.160656E+00  1.146931E+00  1.133527E+00  1.120433E+00  1.107638E+00  1.095133E+00  1.082907E+00
 1.070951E+00  1.059257E+00  1.047815E+00  1.036618E+00  1.025657E+00  1.014925E+00  1.004413E+00  9.941128E-01  9.840161E-01  9.741195E-01
 9.596535E+01  6.516250E+01  3.952020E+01  2.791216E+01  2.159156E+01  1.763081E+01  1.490860E+01  1.291814E+01  1.139768E+01  1.019778E+01
 9.226563E+00  8.424284E+00  7.750378E+00  7.176311E+00  6.681426E+00  6.250396E+00  5.871612E+00  5.536117E+00  5.236891E+00  4.968355E+00