# vtk DataFile Version 2.0
PFLOTRAN output
ASCII
DATASET UNSTRUCTURED_GRID
POINTS          462 float
 0.000000E+00  0.000000E+00  0.000000E+00
 2.000000E+03  0.000000E+00  0.000000E+00
 4.000000E+03  0.000000E+00  0.000000E+00
 6.000000E+03  0.000000E+00  0.000000E+00
 8.000000E+03  0.000000E+00  0.000000E+00
 1.000000E+04  0.000000E+00  0.000000E+00
 1.200000E+04  0.000000E+00  0.000000E+00
 1.400000E+04  0.000000E+00  0.000000E+00
 1.600000E+04  0.000000E+00  0.000000E+00
 1.800000E+04  0.000000E+00  0.000000E+00
 2.000000E+04  0.000000E+00  0.000000E+00
 0.000000E+00  1.000000E+00  0.000000E+00
 2.000000E+03  1.000000E+00  0.000000E+00
 4.000000E+03  1.000000E+00  0.000000E+00
 6.000000E+03  1.000000E+00  0.000000E+00
 8.000000E+03  1.000000E+00  0.000000E+00
 1.000000E+04  1.000000E+00  0.000000E+00
 1.200000E+04  1.000000E+00  0.000000E+00
 1.400000E+04  1.000000E+00  0.000000E+00
 1.600000E+04  1.000000E+00  0.000000E+00
 1.800000E+04  1.000000E+00  0.000000E+00
 2.000000E+04  1.000000E+00  0.000000E+00
 0.000000E+00  0.000000E+00  5.000000E+00
 2.000000E+03  0.000000E+00  5.000000E+00
 4.000000E+03  0.000000E+00  5.000000E+00
 6.000000E+03  0.000000E+00  5.000000E+00
 8.000000E+03  0.000000E+00  5.000000E+00
 1.000000E+04  0.000000E+00  5.000000E+00
 1.200000E+04  0.000000E+00  5.000000E+00
 1.400000E+04  0.000000E+00  5.000000E+00
 1.600000E+04  0.000000E+00  5.000000E+00
 1.800000E+04  0.000000E+00  5.000000E+00
 2.000000E+04  0.000000E+00  5.000000E+00
 0.000000E+00  1.000000E+00  5.000000E+00
 2.000000E+03  1.000000E+00  5.000000E+00
 4.000000E+03  1.000000E+00  5.000000E+00
 6.000000E+03  1.000000E+00  5.000000E+00
 8.000000E+03  1.000000E+00  5.000000E+00
 1.000000E+04  1.000000E+00  5.000000E+00
 1.200000E+04  1.000000E+00  5.000000E+00
 1.400000E+04  1.000000E+00  5.000000E+00
 1.600000E+04  1.000000E+00  5.000000E+00
 1.800000E+04  1.000000E+00  5.000000E+00
 2.000000E+04  1.000000E+00  5.000000E+00
 0.000000E+00  0.000000E+00  1.000000E+01
 2.000000E+03  0.000000E+00  1.000000E+01
 4.000000E+03  0.000000E+00  1.000000E+01
 6.000000E+03  0.000000E+00  1.000000E+01
 8.000000E+03  0.000000E+00  1.000000E+01
 1.000000E+04  0.000000E+00  1.000000E+01
 1.200000E+04  0.000000E+00  1.000000E+01
 1.400000E+04  0.000000E+00  1.000000E+01
 1.600000E+04  0.000000E+00  1.000000E+01
 1.800000E+04  0.000000E+00  1.000000E+01
 2.000000E+04  0.000000E+00  1.000000E+01
 0.000000E+00  1.000000E+00  1.000000E+01
 2.000000E+03  1.000000E+00  1.000000E+01
 4.000000E+03  1.000000E+00  1.000000E+01
 6.000000E+03  1.000000E+00  1.000000E+01
 8.000000E+03  1.000000E+00  1.000000E+01
 1.000000E+04  1.000000E+00  1.000000E+01
 1.200000E+04  1.000000E+00  1.000000E+01
 1.400000E+04  1.000000E+00  1.000000E+01
 1.600000E+04  1.000000E+00  1.000000E+01
 1.800000E+04  1.000000E+00  1.000000E+01
 2.000000E+04  1.000000E+00  1.000000E+01
 0.000000E+00  0.000000E+00  1.500000E+01
 2.000000E+03  0.000000E+00  1.500000E+01
 4.000000E+03  0.000000E+00  1.500000E+01
 6.000000E+03  0.000000E+00  1.500000E+01
 8.000000E+03  0.000000E+00  1.500000E+01
 1.000000E+04  0.000000E+00  1.500000E+01
 1.200000E+04  0.000000E+00  1.500000E+01
 1.400000E+04  0.000000E+00  1.500000E+01
 1.600000E+04  0.000000E+00  1.500000E+01
 1.800000E+04  0.000000E+00  1.500000E+01
 2.000000E+04  0.000000E+00  1.500000E+01
 0.000000E+00  1.000000E+00  1.500000E+01
 2.000000E+03  1.000000E+00  1.500000E+01
 4.000000E+03  1.000000E+00  1.500000E+01
 6.000000E+03  1.000000E+00  1.500000E+01
 8.000000E+03  1.000000E+00  1.500000E+01
 1.000000E+04  1.000000E+00  1.500000E+01
 1.200000E+04  1.000000E+00  1.500000E+01
 1.400000E+04  1.000000E+00  1.500000E+01
 1.600000E+04  1.000000E+00  1.500000E+01
 1.800000E+04  1.000000E+00  1.500000E+01
 2.000000E+04  1.000000E+00  1.500000E+01
 0.000000E+00  0.000000E+00  2.000000E+01
 2.000000E+03  0.000000E+00  2.000000E+01
 4.000000E+03  0.000000E+00  2.000000E+01
 6.000000E+03  0.000000E+00  2.000000E+01
 8.000000E+03  0.000000E+00  2.000000E+01
 1.000000E+04  0.000000E+00  2.000000E+01
 1.200000E+04  0.000000E+00  2.000000E+01
 1.400000E+04  0.000000E+00  2.000000E+01
 1.600000E+04  0.000000E+00  2.000000E+01
 1.800000E+04  0.000000E+00  2.000000E+01
 2.000000E+04  0.000000E+00  2.000000E+01
 0.000000E+00  1.000000E+00  2.000000E+01
 2.000000E+03  1.000000E+00  2.000000E+01
 4.000000E+03  1.000000E+00  2.000000E+01
 6.000000E+03  1.000000E+00  2.000000E+01
 8.000000E+03  1.000000E+00  2.000000E+01
 1.000000E+04  1.000000E+00  2.000000E+01
 1.200000E+04  1.000000E+00  2.000000E+01
 1.400000E+04  1.000000E+00  2.000000E+01
 1.600000E+04  1.000000E+00  2.000000E+01
 1.800000E+04  1.000000E+00  2.000000E+01
 2.000000E+04  1.000000E+00  2.000000E+01
 0.000000E+00  0.000000E+00  2.500000E+01
 2.000000E+03  0.000000E+00  2.500000E+01
 4.000000E+03  0.000000E+00  2.500000E+01
 6.000000E+03  0.000000E+00  2.500000E+01
 8.000000E+03  0.000000E+00  2.500000E+01
 1.000000E+04  0.000000E+00  2.500000E+01
 1.200000E+04  0.000000E+00  2.500000E+01
 1.400000E+04  0.000000E+00  2.500000E+01
 1.600000E+04  0.000000E+00  2.500000E+01
 1.800000E+04  0.000000E+00  2.500000E+01
 2.000000E+04  0.000000E+00  2.500000E+01
 0.000000E+00  1.000000E+00  2.500000E+01
 2.000000E+03  1.000000E+00  2.500000E+01
 4.000000E+03  1.000000E+00  2.500000E+01
 6.000000E+03  1.000000E+00  2.500000E+01
 8.000000E+03  1.000000E+00  2.500000E+01
 1.000000E+04  1.000000E+00  2.500000E+01
 1.200000E+04  1.000000E+00  2.500000E+01
 1.400000E+04  1.000000E+00  2.500000E+01
 1.600000E+04  1.000000E+00  2.500000E+01
 1.800000E+04  1.000000E+00  2.500000E+01
 2.000000E+04  1.000000E+00  2.500000E+01
 0.000000E+00  0.000000E+00  3.000000E+01
 2.000000E+03  0.000000E+00  3.000000E+01
 4.000000E+03  0.000000E+00  3.000000E+01
 6.000000E+03  0.000000E+00  3.000000E+01
 8.000000E+03  0.000000E+00  3.000000E+01
 1.000000E+04  0.000000E+00  3.000000E+01
 1.200000E+04  0.000000E+00  3.000000E+01
 1.400000E+04  0.000000E+00  3.000000E+01
 1.600000E+04  0.000000E+00  3.000000E+01
 1.800000E+04  0.000000E+00  3.000000E+01
 2.000000E+04  0.000000E+00  3.000000E+01
 0.000000E+00  1.000000E+00  3.000000E+01
 2.000000E+03  1.000000E+00  3.000000E+01
 4.000000E+03  1.000000E+00  3.000000E+01
 6.000000E+03  1.000000E+00  3.000000E+01
 8.000000E+03  1.000000E+00  3.000000E+01
 1.000000E+04  1.000000E+00  3.000000E+01
 1.200000E+04  1.000000E+00  3.000000E+01
 1.400000E+04  1.000000E+00  3.000000E+01
 1.600000E+04  1.000000E+00  3.000000E+01
 1.800000E+04  1.000000E+00  3.000000E+01
 2.000000E+04  1.000000E+00  3.000000E+01
 0.000000E+00  0.000000E+00  3.500000E+01
 2.000000E+03  0.000000E+00  3.500000E+01
 4.000000E+03  0.000000E+00  3.500000E+01
 6.000000E+03  0.000000E+00  3.500000E+01
 8.000000E+03  0.000000E+00  3.500000E+01
 1.000000E+04  0.000000E+00  3.500000E+01
 1.200000E+04  0.000000E+00  3.500000E+01
 1.400000E+04  0.000000E+00  3.500000E+01
 1.600000E+04  0.000000E+00  3.500000E+01
 1.800000E+04  0.000000E+00  3.500000E+01
 2.000000E+04  0.000000E+00  3.500000E+01
 0.000000E+00  1.000000E+00  3.500000E+01
 2.000000E+03  1.000000E+00  3.500000E+01
 4.000000E+03  1.000000E+00  3.500000E+01
 6.000000E+03  1.000000E+00  3.500000E+01
 8.000000E+03  1.000000E+00  3.500000E+01
 1.000000E+04  1.000000E+00  3.500000E+01
 1.200000E+04  1.000000E+00  3.500000E+01
 1.400000E+04  1.000000E+00  3.500000E+01
 1.600000E+04  1.000000E+00  3.500000E+01
 1.800000E+04  1.000000E+00  3.500000E+01
 2.000000E+04  1.000000E+00  3.500000E+01
 0.000000E+00  0.000000E+00  4.000000E+01
 2.000000E+03  0.000000E+00  4.000000E+01
 4.000000E+03  0.000000E+00  4.000000E+01
 6.000000E+03  0.000000E+00  4.000000E+01
 8.000000E+03  0.000000E+00  4.000000E+01
 1.000000E+04  0.000000E+00  4.000000E+01
 1.200000E+04  0.000000E+00  4.000000E+01
 1.400000E+04  0.000000E+00  4.000000E+01
 1.600000E+04  0.000000E+00  4.000000E+01
 1.800000E+04  0.000000E+00  4.000000E+01
 2.000000E+04  0.000000E+00  4.000000E+01
 0.000000E+00  1.000000E+00  4.000000E+01
 2.000000E+03  1.000000E+00  4.000000E+01
 4.000000E+03  1.000000E+00  4.000000E+01
 6.000000E+03  1.000000E+00  4.000000E+01
 8.000000E+03  1.000000E+00  4.000000E+01
 1.000000E+04  1.000000E+00  4.000000E+01
 1.200000E+04  1.000000E+00  4.000000E+01
 1.400000E+04  1.000000E+00  4.000000E+01
 1.600000E+04  1.000000E+00  4.000000E+01
 1.800000E+04  1.000000E+00  4.000000E+01
 2.000000E+04  1.000000E+00  4.000000E+01
 0.000000E+00  0.000000E+00  4.500000E+01
 2.000000E+03  0.000000E+00  4.500000E+01
 4.000000E+03  0.000000E+00  4.500000E+01
 6.000000E+03  0.000000E+00  4.500000E+01
 8.000000E+03  0.000000E+00  4.500000E+01
 1.000000E+04  0.000000E+00  4.500000E+01
 1.200000E+04  0.000000E+00  4.500000E+01
 1.400000E+04  0.000000E+00  4.500000E+01
 1.600000E+04  0.000000E+00  4.500000E+01
 1.800000E+04  0.000000E+00  4.500000E+01
 2.000000E+04  0.000000E+00  4.500000E+01
 0.000000E+00  1.000000E+00  4.500000E+01
 2.000000E+03  1.000000E+00  4.500000E+01
 4.000000E+03  1.000000E+00  4.500000E+01
 6.000000E+03  1.000000E+00  4.500000E+01
 8.000000E+03  1.000000E+00  4.500000E+01
 1.000000E+04  1.000000E+00  4.500000E+01
 1.200000E+04  1.000000E+00  4.500000E+01
 1.400000E+04  1.000000E+00  4.500000E+01
 1.600000E+04  1.000000E+00  4.500000E+01
 1.800000E+04  1.000000E+00  4.500000E+01
 2.000000E+04  1.000000E+00  4.500000E+01
 0.000000E+00  0.000000E+00  5.000000E+01
 2.000000E+03  0.000000E+00  5.000000E+01
 4.000000E+03  0.000000E+00  5.000000E+01
 6.000000E+03  0.000000E+00  5.000000E+01
 8.000000E+03  0.000000E+00  5.000000E+01
 1.000000E+04  0.000000E+00  5.000000E+01
 1.200000E+04  0.000000E+00  5.000000E+01
 1.400000E+04  0.000000E+00  5.000000E+01
 1.600000E+04  0.000000E+00  5.000000E+01
 1.800000E+04  0.000000E+00  5.000000E+01
 2.000000E+04  0.000000E+00  5.000000E+01
 0.000000E+00  1.000000E+00  5.000000E+01
 2.000000E+03  1.000000E+00  5.000000E+01
 4.000000E+03  1.000000E+00  5.000000E+01
 6.000000E+03  1.000000E+00  5.000000E+01
[...]
CELL_DATA      200
SCALARS Porosity             float 1
LOOKUP_TABLE default
 4.377100E-01  4.377100E-01  4.377100E-01  4.377100E-01  4.377099E-01  4.377099E-01  4.377099E-01  4.377099E-01  4.377099E-01  4.377099E-01
 4.377100E-01  4.377100E-01  4.377100E-01  4.377100E-01  4.377099E-01  4.377099E-01  4.377099E-01  4.377099E-01  4.377099E-01  4.377099E-01
 4.377100E-01  4.377100E-01  4.377100E-01  4.377100E-01  4.377099E-01  4.377099E-01  4.377099E-01  4.377099E-01  4.377099E-01  4.377099E-01
 4.377100E-01  4.377100E-01  4.377100E-01  4.377100E-01  4.377099E-01  4.377099E-01  4.377099E-01  4.377099E-01  4.377099E-01  4.377099E-01
 4.377100E-01  4.377100E-01  4.377100E-01  4.377100E-01  4.377100E-01  4.377099E-01  4.377099E-01  4.377099E-01  4.377099E-01  4.377099E-01
 4.377100E-01  4.377100E-01  4.377100E-01  4.377100E-01  4.377100E-01  4.377099E-01  4.377099E-01  4.377099E-01  4.377099E-01  4.377099E-01
 4.377098E-01  4.377100E-01  4.377100E-01  4.377100E-01  4.377100E-01  4.377099E-01  4.377099E-01  4.377099E-01  4.377099E-01  4.377099E-01
 4.377098E-01  4.377100E-01  4.377100E-01  4.377100E-01  4.377100E-01  4.377100E-01  4.377099E-01  4.377099E-01  4.377099E-01  4.377099E-01
 4.377098E-01  4.377100E-01  4.377100E-01  4.377100E-01  4.377100E-01  4.377100E-01  4.377099E-01  4.377099E-01  4.377099E-01  4.377099E-01
 4.377098E-01  4.377100E-01  4.377100E-01  4.377100E-01  4.377100E-01  4.377100E-01  4.377100E-01  4.377099E-01  4.377099E-01  4.377099E-01
 4.377098E-01  4.377100E-01  4.377100E-01  4.377100E-01  4.377100E-01  4.377100E-01  4.377100E-01  4.377099E-01  4.377099E-01  4.377099E-01
 4.377098E-01  4.377100E-01  4.377100E-01  4.377100E-01  4.377100E-01  4.377100E-01  4.377100E-01  4.377100E-01  4.377099E-01  4.377099E-01
 4.377098E-01  4.377100E-01  4.377100E-01  4.377100E-01  4.377100E-01  4.377100E-01  4.377100E-01  4.377100E-01  4.377100E-01  4.377099E-01
 4.377098E-01  4.377100E-01  4.377100E-01  4.377100E-01  4.377100E-01  4.377100E-01  4.377100E-01  4.377100E-01  4.377100E-01  4.377100E-01
 4.377100E-01  4.377100E-01  4.377100E-01  4.377100E-01  4.377100E-01  4.377100E-01  4.377100E-01  4.377100E-01  4.377100E-01  4.377100E-01
 4.377100E-01  4.377100E-01  4.377100E-01  4.377100E-01  4.377100E-01  4.377100E-01  4.377100E-01  4.377100E-01  4.377100E-01  4.377100E-01
 4.377100E-01  4.377100E-01  4.377100E-01  4.377100E-01  4.377100E-01  4.377100E-01  4.377100E-01  4.377100E-01  4.377100E-01  4.377100E-01
 4.377100E-01  4.377100E-01  4.377100E-01  4.377100E-01  4.377100E-01  4.377100E-01  4.377100E-01  4.377100E-01  4.377100E-01  4.377100E-01
 4.377100E-01  4.377100E-01  4.377100E-01  4.377100E-01  4.377100E-01  4.377100E-01  4.377100E-01  4.377100E-01  4.377100E-01  4.377100E-01
 4.377100E-01  4.377100E-01  4.377100E-01  4.377100E-01  4.377100E-01  4.377100E-01  4.377100E-01  4.377100E-01  4.377100E-01  4.377100E-01


SCALARS Permeability         float 1
LOOKUP_TABLE default
 8.829804E-13  8.829803E-13  8.829803E-13  8.829803E-13  8.829803E-13  8.829803E-13  8.829803E-13  8.829802E-13  8.829802E-13  8.829802E-13
 8.829804E-13  8.829803E-13  8.829803E-13  8.829803E-13  8.829803E-13  8.829803E-13  8.829803E-13  8.829802E-13  8.829802E-13  8.829802E-13
 8.829804E-13  8.829803E-13  8.829803E-13  8.829803E-13  8.829803E-13  8.829803E-13  8.829803E-13  8.829803E-13  8.829802E-13  8.829802E-13
 8.829804E-13  8.829804E-13  8.829803E-13  8.829803E-13  8.829803E-13  8.829803E-13  8.829803E-13  8.829803E-13  8.829803E-13  8.829802E-13
 8.829804E-13  8.829804E-13  8.829803E-13  8.829803E-13  8.829803E-13  8.829803E-13  8.829803E-13  8.829803E-13  8.829803E-13  8.829803E-13
 8.829804E-13  8.829804E-13  8.829803E-13  8.829803E-13  8.829803E-13  8.829803E-13  8.829803E-13  8.829803E-13  8.829803E-13  8.829803E-13
 8.829795E-13  8.829804E-13  8.829803E-13  8.829803E-13  8.829803E-13  8.829803E-13  8.829803E-13  8.829803E-13  8.829803E-13  8.829803E-13
 8.829795E-13  8.829804E-13  8.829803E-13  8.829803E-13  8.829803E-13  8.829803E-13  8.829803E-13  8.829803E-13  8.829803E-13  8.829803E-13
 8.829795E-13  8.829804E-13  8.829803E-13  8.829803E-13  8.829803E-13  8.829803E-13  8.829803E-13  8.829803E-13  8.829803E-13  8.829803E-13
 8.829795E-13  8.829804E-13  8.829803E-13  8.829803E-13  8.829803E-13  8.829803E-13  8.829803E-13  8.829803E-13  8.829803E-13  8.829803E-13
 8.829795E-13  8.829804E-13  8.829803E-13  8.829803E-13  8.829803E-13  8.829803E-13  8.829803E-13  8.829803E-13  8.829803E-13  8.829803E-13
 8.829795E-13  8.829804E-13  8.829803E-13  8.829803E-13  8.829803E-13  8.829803E-13  8.829803E-13  8.829803E-13  8.829803E-13  8.829803E-13
 8.829795E-13  8.829804E-13  8.829803E-13  8.829803E-13  8.829803E-13  8.829803E-13  8.829803E-13  8.829803E-13  8.829803E-13  8.829803E-13
 8.829795E-13  8.829804E-13  8.829803E-13  8.829803E-13  8.829803E-13  8.829803E-13  8.829803E-13  8.829803E-13  8.829803E-13  8.829803E-13
 8.829805E-13  8.829804E-13  8.829803E-13  8.829803E-13  8.829803E-13  8.829803E-13  8.829803E-13  8.829803E-13  8.829803E-13  8.829803E-13
 8.829805E-13  8.829804E-13  8.829803E-13  8.829803E-13  8.829803E-13  8.829803E-13  8.829803E-13  8.829803E-13  8.829803E-13  8.829803E-13
 8.829805E-13  8.829804E-13  8.829804E-13  8.829803E-13  8.829803E-13  8.829803E-13  8.829803E-13  8.829803E-13  8.829803E-13  8.829803E-13
 8.829805E-13  8.829804E-13  8.829804E-13  8.829803E-13  8.829803E-13  8.829803E-13  8.829803E-13  8.829803E-13  8.829803E-13  8.829803E-13
 8.829805E-13  8.829804E-13  8.829804E-13  8.829803E-13  8.829803E-13  8.829803E-13  8.829803E-13  8.829803E-13  8.829803E-13  8.829803E-13
 8.829805E-13  8.829804E-13  8.829804E-13  8.829803E-13  8.829803E-13  8.829803E-13  8.829803E-13  8.829803E-13  8.829803E-13  8.829803E-13


SCALARS Liquid_Pressure      float 1
LOOKUP_TABLE default
 8.314938E+06  7.943874E+06  7.772490E+06  7.671865E+06  7.607871E+06  7.565394E+06  7.535988E+06  7.514478E+06  7.497665E+06  7.483628E+06
 8.269770E+06  7.898711E+06  7.727332E+06  7.626709E+06  7.562717E+06  7.520241E+06  7.490836E+06  7.469326E+06  7.452513E+06  7.438477E+06
 8.224609E+06  7.853549E+06  7.682175E+06  7.581554E+06  7.517563E+06  7.475089E+06  7.445684E+06  7.424176E+06  7.407363E+06  7.393327E+06
 8.179454E+06  7.808389E+06  7.637019E+06  7.536401E+06  7.472412E+06  7.429938E+06  7.400534E+06  7.379026E+06  7.362214E+06  7.348178E+06
 8.134304E+06  7.763230E+06  7.591864E+06  7.491248E+06  7.427261E+06  7.384788E+06  7.355386E+06  7.333878E+06  7.317066E+06  7.303031E+06
 8.089161E+06  7.718072E+06  7.546710E+06  7.446097E+06  7.382112E+06  7.339640E+06  7.310238E+06  7.288731E+06  7.271920E+06  7.257884E+06
 8.044024E+06  7.672916E+06  7.501558E+06  7.400948E+06  7.336964E+06  7.294493E+06  7.265092E+06  7.243585E+06  7.226774E+06  7.212739E+06
 7.998880E+06  7.627760E+06  7.456407E+06  7.355799E+06  7.291817E+06  7.249347E+06  7.219947E+06  7.198441E+06  7.181630E+06  7.167596E+06
 7.953731E+06  7.582606E+06  7.411257E+06  7.310652E+06  7.246671E+06  7.204203E+06  7.174803E+06  7.153298E+06  7.136487E+06  7.122453E+06
 7.908576E+06  7.537454E+06  7.366109E+06  7.265506E+06  7.201527E+06  7.159060E+06  7.129661E+06  7.108156E+06  7.091346E+06  7.077312E+06
 7.863415E+06  7.492302E+06  7.320962E+06  7.220362E+06  7.156384E+06  7.113918E+06  7.084519E+06  7.063015E+06  7.046206E+06  7.032172E+06
 7.818249E+06  7.447152E+06  7.275816E+06  7.175218E+06  7.111242E+06  7.068777E+06  7.039379E+06  7.017876E+06  7.001067E+06  6.987034E+06
 7.773076E+06  7.402003E+06  7.230671E+06  7.130076E+06  7.066102E+06  7.023638E+06  6.994241E+06  6.972737E+06  6.955929E+06  6.941896E+06
 7.727897E+06  7.356855E+06  7.185528E+06  7.084935E+06  7.020962E+06  6.978499E+06  6.949103E+06  6.927600E+06  6.910792E+06  6.896760E+06
 7.682713E+06  7.311709E+06  7.140386E+06  7.039796E+06  6.975824E+06  6.933363E+06  6.903967E+06  6.882465E+06  6.865657E+06  6.851625E+06
 7.637535E+06  7.266563E+06  7.095245E+06  6.994657E+06  6.930688E+06  6.888227E+06  6.858832E+06  6.837331E+06  6.820523E+06  6.806492E+06
 7.592362E+06  7.221419E+06  7.050105E+06  6.949520E+06  6.885552E+06  6.843092E+06  6.813699E+06  6.792197E+06  6.775391E+06  6.761359E+06
 7.547196E+06  7.176277E+06  7.004967E+06  6.904384E+06  6.840418E+06  6.797959E+06  6.768566E+06  6.747066E+06  6.730259E+06  6.716228E+06
 7.502035E+06  7.131135E+06  6.959830E+06  6.859250E+06  6.795285E+06  6.752827E+06  6.723435E+06  6.701935E+06  6.685129E+06  6.671099E+06
 7.456881E+06  7.085995E+06  6.914694E+06  6.814117E+06  6.750153E+06  6.707697E+06  6.678305E+06  6.656806E+06  6.640000E+06  6.625970E+06


SCALARS Temperature          float 1
LOOKUP_TABLE default
 1.500477E+02  1.500258E+02  1.500156E+02  1.500097E+02  1.500059E+02  1.500033E+02  1.500016E+02  1.500003E+02  1.499993E+02  1.499985E+02
 1.500476E+02  1.500258E+02  1.500156E+02  1.500097E+02  1.500059E+02  1.500033E+02  1.500016E+02  1.500003E+02  1.499993E+02  1.499985E+02
 1.500476E+02  1.500258E+02  1.500156E+02  1.500097E+02  1.500059E+02  1.500034E+02  1.500016E+02  1.500003E+02  1.499993E+02  1.499985E+02
 1.500476E+02  1.500258E+02  1.500156E+02  1.500097E+02  1.500059E+02  1.500034E+02  1.500016E+02  1.500003E+02  1.499993E+02  1.499985E+02
 1.500476E+02  1.500258E+02  1.500156E+02  1.500097E+02  1.500059E+02  1.500034E+02  1.500016E+02  1.500003E+02  1.499993E+02  1.499985E+02
 1.500476E+02  1.500258E+02  1.500156E+02  1.500097E+02  1.500059E+02  1.500034E+02  1.500016E+02  1.500003E+02  1.499993E+02  1.499985E+02
 1.500474E+02  1.500258E+02  1.500156E+02  1.500097E+02  1.500059E+02  1.500034E+02  1.500016E+02  1.500003E+02  1.499993E+02  1.499985E+02
 1.500475E+02  1.500258E+02  1.500156E+02  1.500097E+02  1.500059E+02  1.500034E+02  1.500016E+02  1.500003E+02  1.499993E+02  1.499985E+02
 1.500475E+02  1.500258E+02  1.500156E+02  1.500097E+02  1.500059E+02  1.500034E+02  1.500016E+02  1.500003E+02  1.499993E+02  1.499985E+02
 1.500475E+02  1.500258E+02  1.500156E+02  1.500097E+02  1.500059E+02  1.500034E+02  1.500016E+02  1.500003E+02  1.499993E+02  1.499985E+02
 1.500475E+02  1.500258E+02  1.500156E+02  1.500097E+02  1.500059E+02  1.500034E+02  1.500016E+02  1.500003E+02  1.499993E+02  1.499985E+02
 1.500476E+02  1.500258E+02  1.500156E+02  1.500097E+02  1.500059E+02  1.500034E+02  1.500016E+02  1.500003E+02  1.499993E+02  1.499985E+02
 1.500476E+02  1.500258E+02  1.500156E+02  1.500097E+02  1.500059E+02  1.500034E+02  1.500016E+02  1.500003E+02  1.499993E+02  1.499985E+02
 1.500476E+02  1.500258E+02  1.500156E+02  1.500097E+02  1.500059E+02  1.500034E+02  1.500016E+02  1.500003E+02  1.499993E+02  1.499985E+02
 1.500478E+02  1.500258E+02  1.500156E+02  1.500097E+02  1.500059E+02  1.500034E+02  1.500016E+02  1.500003E+02  1.499993E+02  1.499985E+02
 1.500478E+02  1.500258E+02  1.500157E+02  1.500097E+02  1.500059E+02  1.500034E+02  1.500016E+02  1.500003E+02  1.499993E+02  1.499985E+02
 1.500478E+02  1.500258E+02  1.500157E+02  1.500097E+02  1.500059E+02  1.500034E+02  1.500016E+02  1.500003E+02  1.499993E+02  1.499985E+02
 1.500478E+02  1.500258E+02  1.500157E+02  1.500097E+02  1.500059E+02  1.500034E+02  1.500016E+02  1.500003E+02  1.499993E+02  1.499985E+02
 1.500478E+02  1.500259E+02  1.500157E+02  1.500097E+02  1.500059E+02  1.500034E+02  1.500016E+02  1.500003E+02  1.499993E+02  1.499985E+02
 1.500478E+02  1.500259E+02  1.500157E+02  1.500097E+02  1.500059E+02  1.500034E+02  1.500016E+02  1.500003E+02  1.499993E+02  1.499985E+02


SCALARS pH                   float 1
LOOKUP_TABLE default
 6.144425E+00  6.144392E+00  6.144377E+00  6.144368E+00  6.144363E+00  6.144359E+00  6.144356E+00  6.144354E+00  6.144353E+00  6.144352E+00
 6.144425E+00  6.144392E+00  6.144377E+00  6.144368E+00  6.144363E+00  6.144359E+00  6.144356E+00  6.144354E+00  6.144353E+00  6.144352E+00
 6.144425E+00  6.144392E+00  6.144377E+00  6.144368E+00  6.144363E+00  6.144359E+00  6.144356E+00  6.144354E+00  6.144353E+00  6.144352E+00
 6.144425E+00  6.144392E+00  6.144377E+00  6.144368E+00  6.144363E+00  6.144359E+00  6.144356E+00  6.144354E+00  6.144353E+00  6.144352E+00
 6.144425E+00  6.144392E+00  6.144377E+00  6.144368E+00  6.144363E+00  6.144359E+00  6.144356E+00  6.144354E+00  6.144353E+00  6.144352E+00
 6.144425E+00  6.144392E+00  6.144377E+00  6.144368E+00  6.144363E+00  6.144359E+00  6.144356E+00  6.144354E+00  6.144353E+00  6.144352E+00
 6.144431E+00  6.144392E+00  6.144377E+00  6.144368E+00  6.144363E+00  6.144359E+00  6.144356E+00  6.144354E+00  6.144353E+00  6.144352E+00
 6.144431E+00  6.144392E+00  6.144377E+00  6.144368E+00  6.144363E+00  6.144359E+00  6.144356E+00  6.144354E+00  6.144353E+00  6.144352E+00
 6.144431E+00  6.144392E+00  6.144377E+00  6.144368E+00  6.144363E+00  6.144359E+00  6.144356E+00  6.144354E+00  6.144353E+00  6.144352E+00
 6.144431E+00  6.144392E+00  6.144377E+00  6.144368E+00  6.144363E+00  6.144359E+00  6.144356E+00  6.144354E+00  6.144353E+00  6.144352E+00
 6.144431E+00  6.144392E+00  6.144377E+00  6.144368E+00  6.144363E+00  6.144359E+00  6.144356E+00  6.144354E+00  6.144353E+00  6.144352E+00
 6.144431E+00  6.144392E+00  6.144377E+00  6.144368E+00  6.144363E+00  6.144359E+00  6.144356E+00  6.144354E+00  6.144353E+00  6.144352E+00
 6.144431E+00  6.144392E+00  6.144377E+00  6.144368E+00  6.144363E+00  6.144359E+00  6.144356E+00  6.144354E+00  6.144353E+00  6.144352E+00
 6.144431E+00  6.144392E+00  6.144377E+00  6.144368E+00  6.144363E+00  6.144359E+00  6.144356E+00  6.144354E+00  6.144353E+00  6.144352E+00
 6.144425E+00  6.144392E+00  6.144377E+00  6.144368E+00  6.144363E+00  6.144359E+00  6.144356E+00  6.144355E+00  6.144353E+00  6.144352E+00
 6.144425E+00  6.144392E+00  6.144377E+00  6.144368E+00  6.144363E+00  6.144359E+00  6.144356E+00  6.144355E+00  6.144353E+00  6.144352E+00
 6.144425E+00  6.144392E+00  6.144377E+00  6.144368E+00  6.144363E+00  6.144359E+00  6.144356E+00  6.144355E+00  6.144353E+00  6.144352E+00
 6.144425E+00  6.144392E+00  6.144377E+00  6.144368E+00  6.144363E+00  6.144359E+00  6.144356E+00  6.144355E+00  6.144353E+00  6.144352E+00
 6.144425E+00  6.144392E+00  6.144377E+00  6.144368E+00  6.144363E+00  6.144359E+00  6.144356E+00  6.144355E+00  6.144353E+00  6.144352E+00
 6.144425E+00  6.144392E+00  6.144377E+00  6.144368E+00  6.144363E+00  6.144359E+00  6.144356E+00  6.144355E+00  6.144353E+00  6.144352E+00


SCALARS Total_H+             float 1
LOOKUP_TABLE default
-3.040495E-03 -3.041247E-03 -3.041598E-03 -3.041805E-03 -3.041937E-03 -3.042026E-03 -3.042087E-03 -3.042131E-03 -3.042165E-03 -3.042194E-03
-3.040495E-03 -3.041246E-03 -3.041597E-03 -3.041804E-03 -3.041937E-03 -3.042025E-03 -3.042086E-03 -3.042130E-03 -3.042165E-03 -3.042193E-03
-3.040495E-03 -3.041245E-03 -3.041597E-03 -3.041804E-03 -3.041936E-03 -3.042024E-03 -3.042085E-03 -3.042130E-03 -3.042164E-03 -3.042192E-03
-3.040494E-03 -3.041245E-03 -3.041596E-03 -3.041803E-03 -3.041936E-03 -3.042024E-03 -3.042085E-03 -3.042129E-03 -3.042164E-03 -3.042192E-03
-3.040494E-03 -3.041244E-03 -3.041595E-03 -3.041803E-03 -3.041935E-03 -3.042023E-03 -3.042084E-03 -3.042129E-03 -3.042163E-03 -3.042191E-03
-3.040494E-03 -3.041243E-03 -3.041595E-03 -3.041802E-03 -3.041935E-03 -3.042023E-03 -3.042084E-03 -3.042128E-03 -3.042163E-03 -3.042191E-03
-3.040496E-03 -3.041243E-03 -3.041594E-03 -3.041802E-03 -3.041934E-03 -3.042022E-03 -3.042083E-03 -3.042128E-03 -3.042162E-03 -3.042190E-03
-3.040495E-03 -3.041242E-03 -3.041594E-03 -3.041801E-03 -3.041933E-03 -3.042022E-03 -3.042083E-03 -3.042127E-03 -3.042162E-03 -3.042190E-03
-3.040494E-03 -3.041241E-03 -3.041593E-03 -3.041800E-03 -3.041933E-03 -3.042021E-03 -3.042082E-03 -3.042127E-03 -3.042161E-03 -3.042189E-03
-3.040493E-03 -3.041241E-03 -3.041592E-03 -3.041800E-03 -3.041932E-03 -3.042021E-03 -3.042082E-03 -3.042126E-03 -3.042161E-03 -3.042189E-03
-3.040493E-03 -3.041240E-03 -3.041592E-03 -3.041799E-03 -3.041932E-03 -3.042020E-03 -3.042081E-03 -3.042126E-03 -3.042160E-03 -3.042188E-03
-3.040492E-03 -3.041239E-03 -3.041591E-03 -3.041799E-03 -3.041931E-03 -3.042019E-03 -3.042081E-03 -3.042125E-03 -3.042160E-03 -3.042188E-03
-3.040491E-03 -3.041239E-03 -3.041591E-03 -3.041798E-03 -3.041931E-03 -3.042019E-03 -3.042080E-03 -3.042125E-03 -3.042159E-03 -3.042187E-03
-3.040490E-03 -3.041238E-03 -3.041590E-03 -3.041798E-03 -3.041930E-03 -3.042018E-03 -3.042080E-03 -3.042124E-03 -3.042158E-03 -3.042187E-03
-3.040482E-03 -3.041237E-03 -3.041589E-03 -3.041797E-03 -3.041930E-03 -3.042018E-03 -3.042079E-03 -3.042123E-03 -3.042158E-03 -3.042186E-03
-3.040481E-03 -3.041237E-03 -3.041589E-03 -3.041796E-03 -3.041929E-03 -3.042017E-03 -3.042078E-03 -3.042123E-03 -3.042157E-03 -3.042186E-03
-3.040481E-03 -3.041236E-03 -3.041588E-03 -3.041796E-03 -3.041928E-03 -3.042017E-03 -3.042078E-03 -3.042122E-03 -3.042157E-03 -3.042185E-03
-3.040481E-03 -3.041236E-03 -3.041588E-03 -3.041795E-03 -3.041928E-03 -3.042016E-03 -3.042077E-03 -3.042122E-03 -3.042156E-03 -3.042185E-03
-3.040481E-03 -3.041235E-03 -3.041587E-03 -3.041795E-03 -3.041927E-03 -3.042016E-03 -3.042077E-03 -3.042121E-03 -3.042156E-03 -3.042184E-03
-3.040480E-03 -3.041234E-03 -3.041586E-03 -3.041794E-03 -3.041927E-03 -3.042015E-03 -3.042076E-03 -3.042121E-03 -3.042155E-03 -3.042183E-03


SCALARS Total_SiO2(aq)       float 1
LOOKUP_TABLE default
 1.039614E-02  1.039426E-02  1.039339E-02  1.039288E-02  1.039255E-02  1.039234E-02  1.039219E-02  1.039208E-02  1.039200E-02  1.039193E-02
 1.039614E-02  1.039426E-02  1.039339E-02  1.039288E-02  1.039256E-02  1.039234E-02  1.039219E-02  1.039208E-02  1.039200E-02  1.039193E-02
 1.039614E-02  1.039426E-02  1.039339E-02  1.039288E-02  1.039256E-02  1.039234E-02  1.039219E-02  1.039208E-02  1.039200E-02  1.039193E-02
 1.039614E-02  1.039426E-02  1.039339E-02  1.039288E-02  1.039256E-02  1.039234E-02  1.039219E-02  1.039208E-02  1.039200E-02  1.039193E-02
 1.039614E-02  1.039427E-02  1.039339E-02  1.039288E-02  1.039256E-02  1.039234E-02  1.039219E-02  1.039208E-02  1.039200E-02  1.039193E-02
 1.039614E-02  1.039427E-02  1.039339E-02  1.039288E-02  1.039256E-02  1.039234E-02  1.039219E-02  1.039208E-02  1.039200E-02  1.039193E-02
 1.039636E-02  1.039427E-02  1.039339E-02  1.039288E-02  1.039256E-02  1.039234E-02  1.039219E-02  1.039208E-02  1.039200E-02  1.039193E-02
 1.039636E-02  1.039427E-02  1.039339E-02  1.039288E-02  1.039256E-02  1.039234E-02  1.039219E-02  1.039208E-02  1.039200E-02  1.039193E-02
 1.039636E-02  1.039427E-02  1.039339E-02  1.039288E-02  1.039256E-02  1.039234E-02  1.039219E-02  1.039208E-02  1.039200E-02  1.039193E-02
 1.039636E-02  1.039427E-02  1.039339E-02  1.039288E-02  1.039256E-02  1.039234E-02  1.039219E-02  1.039208E-02  1.039200E-02  1.039193E-02
 1.039636E-02  1.039427E-02  1.039339E-02  1.039288E-02  1.039256E-02  1.039234E-02  1.039219E-02  1.039208E-02  1.039200E-02  1.039193E-02
 1.039637E-02  1.039427E-02  1.039339E-02  1.039288E-02  1.039256E-02  1.039234E-02  1.039219E-02  1.039208E-02  1.039200E-02  1.039193E-02
 1.039637E-02  1.039427E-02  1.039339E-02  1.039288E-02  1.039256E-02  1.039234E-02  1.039219E-02  1.039208E-02  1.039200E-02  1.039193E-02
 1.039637E-02  1.039427E-02  1.039339E-02  1.039288E-02  1.039256E-02  1.039234E-02  1.039219E-02  1.039208E-02  1.039200E-02  1.039193E-02
 1.039616E-02  1.039427E-02  1.039339E-02  1.039288E-02  1.039256E-02  1.039234E-02  1.039219E-02  1.039208E-02  1.039200E-02  1.039193E-02
 1.039616E-02  1.039427E-02  1.039339E-02  1.039288E-02  1.039256E-02  1.039234E-02  1.039219E-02  1.039208E-02  1.039200E-02  1.039193E-02
 1.039616E-02  1.039427E-02  1.039339E-02  1.039288E-02  1.039256E-02  1.039234E-02  1.039219E-02  1.039208E-02  1.039200E-02  1.039193E-02
 1.039616E-02  1.039427E-02  1.039339E-02  1.039288E-02  1.039256E-02  1.039234E-02  1.039219E-02  1.039208E-02  1.039200E-02  1.039193E-02
 1.039616E-02  1.039427E-02  1.039339E-02  1.039288E-02  1.039256E-02  1.039234E-02  1.039219E-02  1.039208E-02  1.039200E-02  1.039193E-02