# vtk DataFile Version 2.0
PFLOTRAN output
ASCII
DATASET UNSTRUCTURED_GRID
POINTS          462 float
 0.000000E+00  0.000000E+00  0.000000E+00
 1.000000E+01  0.000000E+00  0.000000E+00
 2.000000E+01  0.000000E+00  0.000000E+00
 3.000000E+01  0.000000E+00  0.000000E+00
 4.000000E+01  0.000000E+00  0.000000E+00
 5.000000E+01  0.000000E+00  0.000000E+00
 6.000000E+01  0.000000E+00  0.000000E+00
 7.000000E+01  0.000000E+00  0.000000E+00
 8.000000E+01  0.000000E+00  0.000000E+00
 9.000000E+01  0.000000E+00  0.000000E+00
 1.000000E+02  0.000000E+00  0.000000E+00
 0.000000E+00  1.000000E+00  0.000000E+00
 1.000000E+01  1.000000E+00  0.000000E+00
 2.000000E+01  1.000000E+00  0.000000E+00
 3.000000E+01  1.000000E+00  0.000000E+00
 4.000000E+01  1.000000E+00  0.000000E+00
 5.000000E+01  1.000000E+00  0.000000E+00
 6.000000E+01  1.000000E+00  0.000000E+00
 7.000000E+01  1.000000E+00  0.000000E+00
 8.000000E+01  1.000000E+00  0.000000E+00
 9.000000E+01  1.000000E+00  0.000000E+00
 1.000000E+02  1.000000E+00  0.000000E+00
 0.000000E+00  0.000000E+00  5.000000E+00
 1.000000E+01  0.000000E+00  5.000000E+00
 2.000000E+01  0.000000E+00  5.000000E+00
 3.000000E+01  0.000000E+00  5.000000E+00
 4.000000E+01  0.000000E+00  5.000000E+00
 5.000000E+01  0.000000E+00  5.000000E+00
 6.000000E+01  0.000000E+00  5.000000E+00
 7.000000E+01  0.000000E+00  5.000000E+00
 8.000000E+01  0.000000E+00  5.000000E+00
 9.000000E+01  0.000000E+00  5.000000E+00
 1.000000E+02  0.000000E+00  5.000000E+00
 0.000000E+00  1.000000E+00  5.000000E+00
 1.000000E+01  1.000000E+00  5.000000E+00
 2.000000E+01  1.000000E+00  5.000000E+00
 3.000000E+01  1.000000E+00  5.000000E+00
 4.000000E+01  1.000000E+00  5.000000E+00
 5.000000E+01  1.000000E+00  5.000000E+00
 6.000000E+01  1.000000E+00  5.000000E+00
 7.000000E+01  1.000000E+00  5.000000E+00
 8.000000E+01  1.000000E+00  5.000000E+00
 9.000000E+01  1.000000E+00  5.000000E+00
 1.000000E+02  1.000000E+00  5.000000E+00
 0.000000E+00  0.000000E+00  1.000000E+01
 1.000000E+01  0.000000E+00  1.000000E+01
 2.000000E+01  0.000000E+00  1.000000E+01
 3.000000E+01  0.000000E+00  1.000000E+01
 4.000000E+01  0.000000E+00  1.000000E+01
 5.000000E+01  0.000000E+00  1.000000E+01
 6.000000E+01  0.000000E+00  1.000000E+01
 7.000000E+01  0.000000E+00  1.000000E+01
 8.000000E+01  0.000000E+00  1.000000E+01
 9.000000E+01  0.000000E+00  1.000000E+01
 1.000000E+02  0.000000E+00  1.000000E+01
 0.000000E+00  1.000000E+00  1.000000E+01
 1.000000E+01  1.000000E+00  1.000000E+01
 2.000000E+01  1.000000E+00  1.000000E+01
 3.000000E+01  1.000000E+00  1.000000E+01
 4.000000E+01  1.000000E+00  1.000000E+01
 5.000000E+01  1.000000E+00  1.000000E+01
 6.000000E+01  1.000000E+00  1.000000E+01
 7.000000E+01  1.000000E+00  1.000000E+01
 8.000000E+01  1.000000E+00  1.000000E+01
 9.000000E+01  1.000000E+00  1.000000E+01
 1.000000E+02  1.000000E+00  1.000000E+01
 0.000000E+00  0.000000E+00  1.500000E+01
 1.000000E+01  0.000000E+00  1.500000E+01
 2.000000E+01  0.000000E+00  1.500000E+01
 3.000000E+01  0.000000E+00  1.500000E+01
 4.000000E+01  0.000000E+00  1.500000E+01
 5.000000E+01  0.000000E+00  1.500000E+01
 6.000000E+01  0.000000E+00  1.500000E+01
 7.000000E+01  0.000000E+00  1.500000E+01
 8.000000E+01  0.000000E+00  1.500000E+01
 9.000000E+01  0.000000E+00  1.500000E+01
 1.000000E+02  0.000000E+00  1.500000E+01
 0.000000E+00  1.000000E+00  1.500000E+01
 1.000000E+01  1.000000E+00  1.500000E+01
 2.000000E+01  1.000000E+00  1.500000E+01
 3.000000E+01  1.000000E+00  1.500000E+01
 4.000000E+01  1.000000E+00  1.500000E+01
 5.000000E+01  1.000000E+00  1.500000E+01
 6.000000E+01  1.000000E+00  1.500000E+01
 7.000000E+01  1.000000E+00  1.500000E+01
 8.000000E+01  1.000000E+00  1.500000E+01
 9.000000E+01  1.000000E+00  1.500000E+01
 1.000000E+02  1.000000E+00  1.500000E+01
 0.000000E+00  0.000000E+00  2.000000E+01
 1.000000E+01  0.000000E+00  2.000000E+01
 2.000000E+01  0.000000E+00  2.000000E+01
 3.000000E+01  0.000000E+00  2.000000E+01
 4.000000E+01  0.000000E+00  2.000000E+01
 5.000000E+01  0.000000E+00  2.000000E+01
 6.000000E+01  0.000000E+00  2.000000E+01
 7.000000E+01  0.000000E+00  2.000000E+01
 8.000000E+01  0.000000E+00  2.000000E+01
 9.000000E+01  0.000000E+00  2.000000E+01
 1.000000E+02  0.000000E+00  2.000000E+01
 0.000000E+00  1.000000E+00  2.000000E+01
 1.000000E+01  1.000000E+00  2.000000E+01
 2.000000E+01  1.000000E+00  2.000000E+01
 3.000000E+01  1.000000E+00  2.000000E+01
 4.000000E+01  1.000000E+00  2.000000E+01
 5.000000E+01  1.000000E+00  2.000000E+01
 6.000000E+01  1.000000E+00  2.000000E+01
 7.000000E+01  1.000000E+00  2.000000E+01
 8.000000E+01  1.000000E+00  2.000000E+01
 9.000000E+01  1.000000E+00  2.000000E+01
 1.000000E+02  1.000000E+00  2.000000E+01
 0.000000E+00  0.000000E+00  2.500000E+01
 1.000000E+01  0.000000E+00  2.500000E+01
 2.000000E+01  0.000000E+00  2.500000E+01
 3.000000E+01  0.000000E+00  2.500000E+01
 4.000000E+01  0.000000E+00  2.500000E+01
 5.000000E+01  0.000000E+00  2.500000E+01
 6.000000E+01  0.000000E+00  2.500000E+01
 7.000000E+01  0.000000E+00  2.500000E+01
 8.000000E+01  0.000000E+00  2.500000E+01
 9.000000E+01  0.000000E+00  2.500000E+01
 1.000000E+02  0.000000E+00  2.500000E+01
 0.000000E+00  1.000000E+00  2.500000E+01
 1.000000E+01  1.000000E+00  2.500000E+01
 2.000000E+01  1.000000E+00  2.500000E+01
 3.000000E+01  1.000000E+00  2.500000E+01
 4.000000E+01  1.000000E+00  2.500000E+01
 5.000000E+01  1.000000E+00  2.500000E+01
 6.000000E+01  1.000000E+00  2.500000E+01
 7.000000E+01  1.000000E+00  2.500000E+01
 8.000000E+01  1.000000E+00  2.500000E+01
 9.000000E+01  1.000000E+00  2.500000E+01
 1.000000E+02  1.000000E+00  2.500000E+01
 0.000000E+00  0.000000E+00  3.000000E+01
 1.000000E+01  0.000000E+00  3.000000E+01
 2.000000E+01  0.000000E+00  3.000000E+01
 3.000000E+01  0.000000E+00  3.000000E+01
 4.000000E+01  0.000000E+00  3.000000E+01
 5.000000E+01  0.000000E+00  3.000000E+01
 6.000000E+01  0.000000E+00  3.000000E+01
 7.000000E+01  0.000000E+00  3.000000E+01
 8.000000E+01  0.000000E+00  3.000000E+01
 9.000000E+01  0.000000E+00  3.000000E+01
 1.000000E+02  0.000000E+00  3.000000E+01
 0.000000E+00  1.000000E+00  3.000000E+01
 1.000000E+01  1.000000E+00  3.000000E+01
 2.000000E+01  1.000000E+00  3.000000E+01
 3.000000E+01  1.000000E+00  3.000000E+01
 4.000000E+01  1.000000E+00  3.000000E+01
 5.000000E+01  1.000000E+00  3.000000E+01
 6.000000E+01  1.000000E+00  3.000000E+01
 7.000000E+01  1.000000E+00  3.000000E+01
 8.000000E+01  1.000000E+00  3.000000E+01
 9.000000E+01  1.000000E+00  3.000000E+01
 1.000000E+02  1.000000E+00  3.000000E+01
 0.000000E+00  0.000000E+00  3.500000E+01
 1.000000E+01  0.000000E+00  3.500000E+01
 2.000000E+01  0.000000E+00  3.500000E+01
 3.000000E+01  0.000000E+00  3.500000E+01
 4.000000E+01  0.000000E+00  3.500000E+01
 5.000000E+01  0.000000E+00  3.500000E+01
 6.000000E+01  0.000000E+00  3.500000E+01
 7.000000E+01  0.000000E+00  3.500000E+01
 8.000000E+01  0.000000E+00  3.500000E+01
 9.000000E+01  0.000000E+00  3.500000E+01
 1.000000E+02  0.000000E+00  3.500000E+01
 0.000000E+00  1.000000E+00  3.500000E+01
 1.000000E+01  1.000000E+00  3.500000E+01
 2.000000E+01  1.000000E+00  3.500000E+01
 3.000000E+01  1.000000E+00  3.500000E+01
 4.000000E+01  1.000000E+00  3.500000E+01
 5.000000E+01  1.000000E+00  3.500000E+01
 6.000000E+01  1.000000E+00  3.500000E+01
 7.000000E+01  1.000000E+00  3.500000E+01
 8.000000E+01  1.000000E+00  3.500000E+01
 9.000000E+01  1.000000E+00  3.500000E+01
 1.000000E+02  1.000000E+00  3.500000E+01
 0.000000E+00  0.000000E+00  4.000000E+01
 1.000000E+01  0.000000E+00  4.000000E+01
 2.000000E+01  0.000000E+00  4.000000E+01
 3.000000E+01  0.000000E+00  4.000000E+01
 4.000000E+01  0.000000E+00  4.000000E+01
 5.000000E+01  0.000000E+00  4.000000E+01
 6.000000E+01  0.000000E+00  4.000000E+01
 7.000000E+01  0.000000E+00  4.000000E+01
 8.000000E+01  0.000000E+00  4.000000E+01
 9.000000E+01  0.000000E+00  4.000000E+01
 1.000000E+02  0.000000E+00  4.000000E+01
 0.000000E+00  1.000000E+00  4.000000E+01
 1.000000E+01  1.000000E+00  4.000000E+01
 2.000000E+01  1.000000E+00  4.000000E+01
 3.000000E+01  1.000000E+00  4.000000E+01
 4.000000E+01  1.000000E+00  4.000000E+01
 5.000000E+01  1.000000E+00  4.000000E+01
 6.000000E+01  1.000000E+00  4.000000E+01
 7.000000E+01  1.000000E+00  4.000000E+01
 8.000000E+01  1.000000E+00  4.000000E+01
 9.000000E+01  1.000000E+00  4.000000E+01
 1.000000E+02  1.000000E+00  4.000000E+01
 0.000000E+00  0.000000E+00  4.500000E+01
 1.000000E+01  0.000000E+00  4.500000E+01
 2.000000E+01  0.000000E+00  4.500000E+01
 3.000000E+01  0.000000E+00  4.500000E+01
 4.000000E+01  0.000000E+00  4.500000E+01
 5.000000E+01  0.000000E+00  4.500000E+01
 6.000000E+01  0.000000E+00  4.500000E+01
 7.000000E+01  0.000000E+00  4.500000E+01
 8.000000E+01  0.000000E+00  4.500000E+01
 9.000000E+01  0.000000E+00  4.500000E+01
 1.000000E+02  0.000000E+00  4.500000E+01
 0.000000E+00  1.000000E+00  4.500000E+01
 1.000000E+01  1.000000E+00  4.500000E+01
 2.000000E+01  1.000000E+00  4.500000E+01
 3.000000E+01  1.000000E+00  4.500000E+01
 4.000000E+01  1.000000E+00  4.500000E+01
 5.000000E+01  1.000000E+00  4.500000E+01
 6.000000E+01  1.000000E+00  4.500000E+01
 7.000000E+01  1.000000E+00  4.500000E+01
 8.000000E+01  1.000000E+00  4.500000E+01
 9.000000E+01  1.000000E+00  4.500000E+01
 1.000000E+02  1.000000E+00  4.500000E+01
 0.000000E+00  0.000000E+00  5.000000E+01
 1.000000E+01  0.000000E+00  5.000000E+01
 2.000000E+01  0.000000E+00  5.000000E+01
 3.000000E+01  0.000000E+00  5.000000E+01
 4.000000E+01  0.000000E+00  5.000000E+01
 5.000000E+01  0.000000E+00  5.000000E+01
 6.000000E+01  0.000000E+00  5.000000E+01
 7.000000E+01  0.000000E+00  5.000000E+01
 8.000000E+01  0.000000E+00  5.000000E+01
 9.000000E+01  0.000000E+00  5.000000E+01
 1.000000E+02  0.000000E+00  5.000000E+01
 0.000000E+00  1.000000E+00  5.000000E+01
 1.000000E+01  1.000000E+00  5.000000E+01
 2.000000E+01  1.000000E+00  5.000000E+01
 3.000000E+01  1.000000E+00  5.000000E+01
[...]
CELL_DATA      200
SCALARS Porosity             float 1
LOOKUP_TABLE default
 4.377075E-01  4.377096E-01  4.377099E-01  4.377100E-01  4.377100E-01  4.377100E-01  4.377100E-01  4.377100E-01  4.377100E-01  4.377100E-01
 4.376868E-01  4.377063E-01  4.377095E-01  4.377099E-01  4.377100E-01  4.377100E-01  4.377100E-01  4.377100E-01  4.377100E-01  4.377100E-01
 4.375988E-01  4.376896E-01  4.377071E-01  4.377096E-01  4.377099E-01  4.377100E-01  4.377100E-01  4.377100E-01  4.377100E-01  4.377100E-01
 4.373599E-01  4.376327E-01  4.376977E-01  4.377085E-01  4.377098E-01  4.377099E-01  4.377100E-01  4.377100E-01  4.377100E-01  4.377100E-01
 4.369662E-01  4.374948E-01  4.376709E-01  4.377048E-01  4.377094E-01  4.377099E-01  4.377100E-01  4.377100E-01  4.377100E-01  4.377100E-01
 4.369462E-01  4.372671E-01  4.376143E-01  4.376962E-01  4.377084E-01  4.377098E-01  4.377099E-01  4.377100E-01  4.377100E-01  4.377100E-01
 4.386634E-01  4.371198E-01  4.375352E-01  4.376823E-01  4.377068E-01  4.377097E-01  4.377099E-01  4.377100E-01  4.377100E-01  4.377100E-01
 4.386640E-01  4.370768E-01  4.374950E-01  4.376730E-01  4.377055E-01  4.377095E-01  4.377099E-01  4.377100E-01  4.377100E-01  4.377100E-01
 4.386643E-01  4.370589E-01  4.374718E-01  4.376667E-01  4.377045E-01  4.377094E-01  4.377099E-01  4.377099E-01  4.377100E-01  4.377100E-01
 4.386644E-01  4.370517E-01  4.374609E-01  4.376634E-01  4.377040E-01  4.377094E-01  4.377099E-01  4.377099E-01  4.377100E-01  4.377100E-01
 4.386642E-01  4.370516E-01  4.374609E-01  4.376634E-01  4.377040E-01  4.377094E-01  4.377099E-01  4.377099E-01  4.377100E-01  4.377100E-01
 4.386638E-01  4.370587E-01  4.374718E-01  4.376667E-01  4.377045E-01  4.377094E-01  4.377099E-01  4.377099E-01  4.377100E-01  4.377100E-01
 4.386631E-01  4.370766E-01  4.374951E-01  4.376730E-01  4.377055E-01  4.377095E-01  4.377099E-01  4.377100E-01  4.377100E-01  4.377100E-01
 4.386623E-01  4.371196E-01  4.375353E-01  4.376824E-01  4.377068E-01  4.377097E-01  4.377099E-01  4.377100E-01  4.377100E-01  4.377100E-01
 4.369456E-01  4.372672E-01  4.376144E-01  4.376962E-01  4.377085E-01  4.377098E-01  4.377099E-01  4.377100E-01  4.377100E-01  4.377100E-01
 4.369663E-01  4.374950E-01  4.376710E-01  4.377048E-01  4.377094E-01  4.377099E-01  4.377100E-01  4.377100E-01  4.377100E-01  4.377100E-01
 4.373602E-01  4.376329E-01  4.376978E-01  4.377085E-01  4.377098E-01  4.377099E-01  4.377100E-01  4.377100E-01  4.377100E-01  4.377100E-01
 4.375991E-01  4.376897E-01  4.377072E-01  4.377097E-01  4.377099E-01  4.377100E-01  4.377100E-01  4.377100E-01  4.377100E-01  4.377100E-01
 4.376869E-01  4.377064E-01  4.377095E-01  4.377099E-01  4.377100E-01  4.377100E-01  4.377100E-01  4.377100E-01  4.377100E-01  4.377100E-01
 4.377075E-01  4.377096E-01  4.377099E-01  4.377100E-01  4.377100E-01  4.377100E-01  4.377100E-01  4.377100E-01  4.377100E-01  4.377100E-01


SCALARS Permeability         float 1
LOOKUP_TABLE default
 1.000000E-12  1.000000E-12  1.000000E-12  1.000000E-12  1.000000E-12  1.000000E-12  1.000000E-12  1.000000E-12  1.000000E-12  1.000000E-12
 1.000000E-12  1.000000E-12  1.000000E-12  1.000000E-12  1.000000E-12  1.000000E-12  1.000000E-12  1.000000E-12  1.000000E-12  1.000000E-12
 1.000000E-12  1.000000E-12  1.000000E-12  1.000000E-12  1.000000E-12  1.000000E-12  1.000000E-12  1.000000E-12  1.000000E-12  1.000000E-12
 1.000000E-12  1.000000E-12  1.000000E-12  1.000000E-12  1.000000E-12  1.000000E-12  1.000000E-12  1.000000E-12  1.000000E-12  1.000000E-12
 1.000000E-12  1.000000E-12  1.000000E-12  1.000000E-12  1.000000E-12  1.000000E-12  1.000000E-12  1.000000E-12  1.000000E-12  1.000000E-12
 1.000000E-12  1.000000E-12  1.000000E-12  1.000000E-12  1.000000E-12  1.000000E-12  1.000000E-12  1.000000E-12  1.000000E-12  1.000000E-12
 1.000000E-12  1.000000E-12  1.000000E-12  1.000000E-12  1.000000E-12  1.000000E-12  1.000000E-12  1.000000E-12  1.000000E-12  1.000000E-12
 1.000000E-12  1.000000E-12  1.000000E-12  1.000000E-12  1.000000E-12  1.000000E-12  1.000000E-12  1.000000E-12  1.000000E-12  1.000000E-12
 1.000000E-12  1.000000E-12  1.000000E-12  1.000000E-12  1.000000E-12  1.000000E-12  1.000000E-12  1.000000E-12  1.000000E-12  1.000000E-12
 1.000000E-12  1.000000E-12  1.000000E-12  1.000000E-12  1.000000E-12  1.000000E-12  1.000000E-12  1.000000E-12  1.000000E-12  1.000000E-12
 1.000000E-12  1.000000E-12  1.000000E-12  1.000000E-12  1.000000E-12  1.000000E-12  1.000000E-12  1.000000E-12  1.000000E-12  1.000000E-12
 1.000000E-12  1.000000E-12  1.000000E-12  1.000000E-12  1.000000E-12  1.000000E-12  1.000000E-12  1.000000E-12  1.000000E-12  1.000000E-12
 1.000000E-12  1.000000E-12  1.000000E-12  1.000000E-12  1.000000E-12  1.000000E-12  1.000000E-12  1.000000E-12  1.000000E-12  1.000000E-12
 1.000000E-12  1.000000E-12  1.000000E-12  1.000000E-12  1.000000E-12  1.000000E-12  1.000000E-12  1.000000E-12  1.000000E-12  1.000000E-12
 1.000000E-12  1.000000E-12  1.000000E-12  1.000000E-12  1.000000E-12  1.000000E-12  1.000000E-12  1.000000E-12  1.000000E-12  1.000000E-12
 1.000000E-12  1.000000E-12  1.000000E-12  1.000000E-12  1.000000E-12  1.000000E-12  1.000000E-12  1.000000E-12  1.000000E-12  1.000000E-12
 1.000000E-12  1.000000E-12  1.000000E-12  1.000000E-12  1.000000E-12  1.000000E-12  1.000000E-12  1.000000E-12  1.000000E-12  1.000000E-12
 1.000000E-12  1.000000E-12  1.000000E-12  1.000000E-12  1.000000E-12  1.000000E-12  1.000000E-12  1.000000E-12  1.000000E-12  1.000000E-12
 1.000000E-12  1.000000E-12  1.000000E-12  1.000000E-12  1.000000E-12  1.000000E-12  1.000000E-12  1.000000E-12  1.000000E-12  1.000000E-12
 1.000000E-12  1.000000E-12  1.000000E-12  1.000000E-12  1.000000E-12  1.000000E-12  1.000000E-12  1.000000E-12  1.000000E-12  1.000000E-12


SCALARS Liquid_Pressure      float 1
LOOKUP_TABLE default
 7.947547E+06  7.907877E+06  7.848897E+06  7.785039E+06  7.723546E+06  7.667168E+06  7.616469E+06  7.571113E+06  7.530479E+06  7.493930E+06
 7.922220E+06  7.875764E+06  7.811101E+06  7.743769E+06  7.680387E+06  7.623028E+06  7.571827E+06  7.526213E+06  7.485442E+06  7.448811E+06
 7.920121E+06  7.857464E+06  7.780573E+06  7.706181E+06  7.639076E+06  7.579816E+06  7.527651E+06  7.481543E+06  7.440508E+06  7.403721E+06
 7.949353E+06  7.854352E+06  7.756986E+06  7.671827E+06  7.599316E+06  7.537364E+06  7.483851E+06  7.437056E+06  7.395658E+06  7.358655E+06
 8.026095E+06  7.867863E+06  7.739477E+06  7.639945E+06  7.560653E+06  7.495426E+06  7.440300E+06  7.392691E+06  7.350862E+06  7.313604E+06
 8.181993E+06  7.897806E+06  7.726155E+06  7.609393E+06  7.522491E+06  7.453700E+06  7.396844E+06  7.348370E+06  7.306087E+06  7.268561E+06
 8.480136E+06  7.937622E+06  7.713540E+06  7.578656E+06  7.484128E+06  7.411847E+06  7.353319E+06  7.304014E+06  7.261296E+06  7.223513E+06
 8.628396E+06  7.961796E+06  7.696590E+06  7.546029E+06  7.444842E+06  7.369531E+06  7.309561E+06  7.259544E+06  7.216454E+06  7.178453E+06
 8.688700E+06  7.963396E+06  7.671788E+06  7.510059E+06  7.403993E+06  7.326457E+06  7.265430E+06  7.214892E+06  7.171532E+06  7.133371E+06
 8.690353E+06  7.941463E+06  7.637211E+06  7.469747E+06  7.361118E+06  7.282406E+06  7.220822E+06  7.170010E+06  7.126506E+06  7.088262E+06
 8.645143E+06  7.896291E+06  7.592054E+06  7.424597E+06  7.315973E+06  7.237264E+06  7.175682E+06  7.124871E+06  7.081367E+06  7.043123E+06
 8.553074E+06  7.827883E+06  7.536317E+06  7.374611E+06  7.268559E+06  7.191031E+06  7.130009E+06  7.079474E+06  7.036114E+06  6.997953E+06
 8.402377E+06  7.735950E+06  7.470809E+06  7.320284E+06  7.219118E+06  7.143822E+06  7.083860E+06  7.033847E+06  6.990758E+06  6.952756E+06
 8.163775E+06  7.621459E+06  7.397455E+06  7.262616E+06  7.168116E+06  7.095854E+06  7.037337E+06  6.988038E+06  6.945321E+06  6.907537E+06
 7.775392E+06  7.491345E+06  7.319773E+06  7.203062E+06  7.116192E+06  7.047425E+06  6.990583E+06  6.942115E+06  6.899833E+06  6.862305E+06
 7.529254E+06  7.371119E+06  7.242806E+06  7.143325E+06  7.064070E+06  6.998869E+06  6.943758E+06  6.896156E+06  6.854329E+06  6.817070E+06
 7.362264E+06  7.267331E+06  7.170030E+06  7.084923E+06  7.012450E+06  6.950525E+06  6.897029E+06  6.850242E+06  6.808845E+06  6.771841E+06
 7.242775E+06  7.180168E+06  7.103335E+06  7.028994E+06  6.961929E+06  6.902697E+06  6.850549E+06  6.804448E+06  6.763415E+06  6.726627E+06
 7.154606E+06  7.108192E+06  7.043582E+06  6.976300E+06  6.912958E+06  6.855628E+06  6.804443E+06  6.758837E+06  6.718069E+06  6.681438E+06
 7.089654E+06  7.050021E+06  6.991094E+06  6.927287E+06  6.865835E+06  6.809485E+06  6.758803E+06  6.713456E+06  6.672827E+06  6.636278E+06


SCALARS Temperature          float 1
LOOKUP_TABLE default
 1.500798E+02  1.500840E+02  1.500858E+02  1.500809E+02  1.500701E+02  1.500575E+02  1.500460E+02  1.500362E+02  1.500278E+02  1.500205E+02
 1.500849E+02  1.500933E+02  1.501021E+02  1.501042E+02  1.500944E+02  1.500760E+02  1.500565E+02  1.500408E+02  1.500294E+02  1.500210E+02
 1.500855E+02  1.500967E+02  1.501092E+02  1.501175E+02  1.501134E+02  1.500950E+02  1.500702E+02  1.500482E+02  1.500326E+02  1.500221E+02
 1.500820E+02  1.500980E+02  1.501141E+02  1.501264E+02  1.501281E+02  1.501126E+02  1.500851E+02  1.500575E+02  1.500370E+02  1.500239E+02
 1.500722E+02  1.500972E+02  1.501182E+02  1.501339E+02  1.501401E+02  1.501285E+02  1.501002E+02  1.500679E+02  1.500425E+02  1.500263E+02
 1.500512E+02  1.500950E+02  1.501225E+02  1.501414E+02  1.501509E+02  1.501430E+02  1.501149E+02  1.500788E+02  1.500486E+02  1.500290E+02
 1.500085E+02  1.500930E+02  1.501284E+02  1.501500E+02  1.501618E+02  1.501566E+02  1.501290E+02  1.500896E+02  1.500549E+02  1.500319E+02
 1.500028E+02  1.501000E+02  1.501383E+02  1.501604E+02  1.501730E+02  1.501694E+02  1.501420E+02  1.500998E+02  1.500610E+02  1.500348E+02
 1.500011E+02  1.501049E+02  1.501456E+02  1.501686E+02  1.501818E+02  1.501793E+02  1.501521E+02  1.501079E+02  1.500659E+02  1.500371E+02
 1.500010E+02  1.501084E+02  1.501509E+02  1.501747E+02  1.501884E+02  1.501865E+02  1.501592E+02  1.501135E+02  1.500693E+02  1.500387E+02
 1.500010E+02  1.501084E+02  1.501509E+02  1.501747E+02  1.501884E+02  1.501865E+02  1.501593E+02  1.501135E+02  1.500693E+02  1.500387E+02
 1.500024E+02  1.501081E+02  1.501504E+02  1.501744E+02  1.501882E+02  1.501857E+02  1.501577E+02  1.501119E+02  1.500682E+02  1.500382E+02
 1.500057E+02  1.501069E+02  1.501482E+02  1.501724E+02  1.501861E+02  1.501823E+02  1.501530E+02  1.501076E+02  1.500654E+02  1.500369E+02
 1.500136E+02  1.501045E+02  1.501445E+02  1.501688E+02  1.501819E+02  1.501762E+02  1.501452E+02  1.501007E+02  1.500612E+02  1.500348E+02
 1.500695E+02  1.501174E+02  1.501483E+02  1.501694E+02  1.501798E+02  1.501700E+02  1.501364E+02  1.500929E+02  1.500563E+02  1.500325E+02
 1.501037E+02  1.501318E+02  1.501552E+02  1.501725E+02  1.501786E+02  1.501629E+02  1.501262E+02  1.500841E+02  1.500510E+02  1.500300E+02
 1.501267E+02  1.501451E+02  1.501630E+02  1.501762E+02  1.501759E+02  1.501530E+02  1.501136E+02  1.500743E+02  1.500454E+02  1.500275E+02
 1.501434E+02  1.501566E+02  1.501703E+02  1.501779E+02  1.501684E+02  1.501380E+02  1.500983E+02  1.500637E+02  1.500399E+02  1.500252E+02
 1.501560E+02  1.501658E+02  1.501743E+02  1.501719E+02  1.501507E+02  1.501157E+02  1.500802E+02  1.500529E+02  1.500349E+02  1.500232E+02
 1.501624E+02  1.501645E+02  1.501596E+02  1.501421E+02  1.501144E+02  1.500850E+02  1.500607E+02  1.500432E+02  1.500308E+02  1.500217E+02


SCALARS pH                   float 1
LOOKUP_TABLE default
 6.145608E+00  6.145626E+00  6.145631E+00  6.145598E+00  6.145492E+00  6.145289E+00  6.145013E+00  6.144730E+00  6.144504E+00  6.144357E+00
 6.145589E+00  6.145617E+00  6.145641E+00  6.145651E+00  6.145617E+00  6.145492E+00  6.145256E+00  6.144949E+00  6.144658E+00  6.144443E+00
 6.145554E+00  6.145605E+00  6.145636E+00  6.145658E+00  6.145653E+00  6.145578E+00  6.145390E+00  6.145099E+00  6.144782E+00  6.144522E+00
 6.145255E+00  6.145582E+00  6.145630E+00  6.145659E+00  6.145669E+00  6.145625E+00  6.145476E+00  6.145210E+00  6.144886E+00  6.144595E+00
 6.141973E+00  6.145441E+00  6.145620E+00  6.145659E+00  6.145678E+00  6.145653E+00  6.145535E+00  6.145293E+00  6.144971E+00  6.144661E+00
 6.116058E+00  6.144225E+00  6.145579E+00  6.145660E+00  6.145687E+00  6.145674E+00  6.145577E+00  6.145357E+00  6.145041E+00  6.144717E+00
 5.983342E+00  6.137016E+00  6.145355E+00  6.145662E+00  6.145697E+00  6.145693E+00  6.145611E+00  6.145406E+00  6.145096E+00  6.144763E+00
 5.983329E+00  6.135238E+00  6.145263E+00  6.145673E+00  6.145713E+00  6.145713E+00  6.145639E+00  6.145444E+00  6.145138E+00  6.144799E+00
 5.983328E+00  6.134406E+00  6.145210E+00  6.145683E+00  6.145726E+00  6.145728E+00  6.145660E+00  6.145471E+00  6.145167E+00  6.144823E+00
 5.983330E+00  6.134071E+00  6.145186E+00  6.145690E+00  6.145734E+00  6.145738E+00  6.145672E+00  6.145486E+00  6.145183E+00  6.144837E+00
 5.983326E+00  6.134067E+00  6.145183E+00  6.145688E+00  6.145733E+00  6.145737E+00  6.145671E+00  6.145486E+00  6.145183E+00  6.144837E+00
 5.983323E+00  6.134398E+00  6.145205E+00  6.145682E+00  6.145726E+00  6.145730E+00  6.145660E+00  6.145471E+00  6.145166E+00  6.144822E+00
 5.983323E+00  6.135227E+00  6.145259E+00  6.145673E+00  6.145716E+00  6.145717E+00  6.145641E+00  6.145444E+00  6.145136E+00  6.144796E+00
 5.983339E+00  6.137006E+00  6.145353E+00  6.145666E+00  6.145705E+00  6.145701E+00  6.145615E+00  6.145405E+00  6.145093E+00  6.144760E+00
 6.116066E+00  6.144226E+00  6.145586E+00  6.145673E+00  6.145702E+00  6.145687E+00  6.145584E+00  6.145357E+00  6.145038E+00  6.144713E+00
 6.141985E+00  6.145455E+00  6.145640E+00  6.145683E+00  6.145702E+00  6.145672E+00  6.145543E+00  6.145293E+00  6.144968E+00  6.144657E+00
 6.145278E+00  6.145611E+00  6.145663E+00  6.145694E+00  6.145701E+00  6.145647E+00  6.145485E+00  6.145208E+00  6.144881E+00  6.144591E+00
 6.145590E+00  6.145647E+00  6.145681E+00  6.145703E+00  6.145689E+00  6.145599E+00  6.145395E+00  6.145095E+00  6.144776E+00  6.144518E+00
 6.145638E+00  6.145670E+00  6.145695E+00  6.145698E+00  6.145647E+00  6.145503E+00  6.145253E+00  6.144941E+00  6.144651E+00  6.144439E+00
 6.145664E+00  6.145681E+00  6.145676E+00  6.145626E+00  6.145500E+00  6.145282E+00  6.145000E+00  6.144718E+00  6.144496E+00  6.144353E+00


SCALARS Total_H+             float 1
LOOKUP_TABLE default
-3.047693E-03 -3.046644E-03 -3.045589E-03 -3.044813E-03 -3.044610E-03 -3.045161E-03 -3.046381E-03 -3.047887E-03 -3.049238E-03 -3.050224E-03
-3.048857E-03 -3.047776E-03 -3.046514E-03 -3.045304E-03 -3.044517E-03 -3.044481E-03 -3.045328E-03 -3.046820E-03 -3.048438E-03 -3.049757E-03
-3.049591E-03 -3.048442E-03 -3.047138E-03 -3.045771E-03 -3.044671E-03 -3.044250E-03 -3.044758E-03 -3.046098E-03 -3.047797E-03 -3.049329E-03
-3.049228E-03 -3.048977E-03 -3.047579E-03 -3.046133E-03 -3.044841E-03 -3.044140E-03 -3.044373E-03 -3.045546E-03 -3.047255E-03 -3.048931E-03
-3.032357E-03 -3.049036E-03 -3.047912E-03 -3.046382E-03 -3.044965E-03 -3.044057E-03 -3.044072E-03 -3.045100E-03 -3.046791E-03 -3.048569E-03
-2.887984E-03 -3.043184E-03 -3.048034E-03 -3.046510E-03 -3.045003E-03 -3.043945E-03 -3.043798E-03 -3.044716E-03 -3.046392E-03 -3.048249E-03
-2.236053E-03 -3.002741E-03 -3.046994E-03 -3.046469E-03 -3.044918E-03 -3.043763E-03 -3.043509E-03 -3.044363E-03 -3.046045E-03 -3.047975E-03
-2.235985E-03 -2.992427E-03 -3.046222E-03 -3.046234E-03 -3.044696E-03 -3.043502E-03 -3.043193E-03 -3.044029E-03 -3.045744E-03 -3.047746E-03
-2.235921E-03 -2.987499E-03 -3.045677E-03 -3.046017E-03 -3.044489E-03 -3.043273E-03 -3.042932E-03 -3.043766E-03 -3.045515E-03 -3.047578E-03
-2.235903E-03 -2.985475E-03 -3.045368E-03 -3.045848E-03 -3.044318E-03 -3.043090E-03 -3.042740E-03 -3.043589E-03 -3.045372E-03 -3.047478E-03
-2.235946E-03 -2.985509E-03 -3.045393E-03 -3.045865E-03 -3.044330E-03 -3.043098E-03 -3.042745E-03 -3.043591E-03 -3.045372E-03 -3.047476E-03
-2.236031E-03 -2.987503E-03 -3.045598E-03 -3.045885E-03 -3.044326E-03 -3.043104E-03 -3.042788E-03 -3.043671E-03 -3.045465E-03 -3.047557E-03
-2.236153E-03 -2.992381E-03 -3.046019E-03 -3.045936E-03 -3.044346E-03 -3.043149E-03 -3.042901E-03 -3.043840E-03 -3.045647E-03 -3.047709E-03
-2.236263E-03 -3.002595E-03 -3.046626E-03 -3.045975E-03 -3.044359E-03 -3.043219E-03 -3.043073E-03 -3.044089E-03 -3.045910E-03 -3.047924E-03
-2.887795E-03 -3.042677E-03 -3.047355E-03 -3.045724E-03 -3.044174E-03 -3.043176E-03 -3.043212E-03 -3.044363E-03 -3.046223E-03 -3.048187E-03
-3.031646E-03 -3.048116E-03 -3.046862E-03 -3.045254E-03 -3.043833E-03 -3.043064E-03 -3.043360E-03 -3.044694E-03 -3.046605E-03 -3.048503E-03
-3.048028E-03 -3.047629E-03 -3.046135E-03 -3.044643E-03 -3.043419E-03 -3.042975E-03 -3.043598E-03 -3.045135E-03 -3.047077E-03 -3.048870E-03
-3.047926E-03 -3.046665E-03 -3.045296E-03 -3.043944E-03 -3.043042E-03 -3.043030E-03 -3.044020E-03 -3.045739E-03 -3.047653E-03 -3.049282E-03
-3.046745E-03 -3.045589E-03 -3.044327E-03 -3.043281E-03 -3.042893E-03 -3.043407E-03 -3.044755E-03 -3.046573E-03 -3.048349E-03 -3.049731E-03
-3.045233E-03 -3.044247E-03 -3.043422E-03 -3.043082E-03 -3.043443E-03 -3.044520E-03 -3.046101E-03 -3.047792E-03 -3.049214E-03 -3.050220E-03


SCALARS Total_SiO2(aq)       float 1
LOOKUP_TABLE default
 1.040217E-02  1.039978E-02  1.039952E-02  1.039906E-02  1.039814E-02  1.039704E-02  1.039604E-02  1.039518E-02  1.039445E-02  1.039382E-02
 1.042855E-02  1.040478E-02  1.040145E-02  1.040111E-02  1.040025E-02  1.039867E-02  1.039698E-02  1.039560E-02  1.039460E-02  1.039387E-02
 1.053789E-02  1.042607E-02  1.040511E-02  1.040258E-02  1.040190E-02  1.040032E-02  1.039818E-02  1.039626E-02  1.039489E-02  1.039398E-02
 1.083824E-02  1.049683E-02  1.041729E-02  1.040481E-02  1.040329E-02  1.040184E-02  1.039947E-02  1.039708E-02  1.039529E-02  1.039414E-02
 1.141940E-02  1.066966E-02  1.045108E-02  1.041007E-02  1.040479E-02  1.040323E-02  1.040078E-02  1.039799E-02  1.039577E-02  1.039435E-02
 1.223593E-02  1.098481E-02  1.052216E-02  1.042150E-02  1.040694E-02  1.040458E-02  1.040206E-02  1.039894E-02  1.039631E-02  1.039460E-02
 1.307224E-02  1.139600E-02  1.062641E-02  1.043950E-02  1.040996E-02  1.040593E-02  1.040328E-02  1.039989E-02  1.039687E-02  1.039486E-02
 1.307125E-02  1.150579E-02  1.067978E-02  1.045201E-02  1.041255E-02  1.040719E-02  1.040442E-02  1.040078E-02  1.039740E-02  1.039511E-02
 1.307068E-02  1.155465E-02  1.071097E-02  1.046061E-02  1.041451E-02  1.040817E-02  1.040530E-02  1.040148E-02  1.039783E-02  1.039532E-02
 1.307057E-02  1.157445E-02  1.072567E-02  1.046517E-02  1.041573E-02  1.040886E-02  1.040591E-02  1.040196E-02  1.039813E-02  1.039546E-02
 1.307082E-02  1.157451E-02  1.072567E-02  1.046516E-02  1.041572E-02  1.040886E-02  1.040592E-02  1.040196E-02  1.039813E-02  1.039547E-02
 1.307147E-02  1.155507E-02  1.071135E-02  1.046107E-02  1.041504E-02  1.040871E-02  1.040577E-02  1.040182E-02  1.039803E-02  1.039542E-02
 1.307256E-02  1.150657E-02  1.068057E-02  1.045297E-02  1.041363E-02  1.040829E-02  1.040536E-02  1.040144E-02  1.039779E-02  1.039530E-02
 1.307402E-02  1.139715E-02  1.062768E-02  1.044103E-02  1.041165E-02  1.040760E-02  1.040468E-02  1.040085E-02  1.039741E-02  1.039511E-02
 1.223781E-02  1.098656E-02  1.052418E-02  1.042380E-02  1.040937E-02  1.040689E-02  1.040392E-02  1.040017E-02  1.039698E-02  1.039490E-02
 1.142183E-02  1.067230E-02  1.045405E-02  1.041328E-02  1.040806E-02  1.040619E-02  1.040303E-02  1.039940E-02  1.039651E-02  1.039468E-02
 1.084161E-02  1.050054E-02  1.042130E-02  1.040899E-02  1.040736E-02  1.040532E-02  1.040195E-02  1.039855E-02  1.039602E-02  1.039445E-02
 1.054245E-02  1.043094E-02  1.041020E-02  1.040771E-02  1.040661E-02  1.040404E-02  1.040063E-02  1.039762E-02  1.039553E-02  1.039424E-02
 1.043439E-02  1.041084E-02  1.040758E-02  1.040691E-02  1.040511E-02  1.040213E-02  1.039906E-02  1.039667E-02  1.039508E-02  1.039406E-02