# vtk DataFile Version 2.0
PFLOTRAN output
ASCII
DATASET UNSTRUCTURED_GRID
POINTS          462 float
 0.000000E+00  0.000000E+00  0.000000E+00
 1.000000E+01  0.000000E+00  0.000000E+00
 2.000000E+01  0.000000E+00  0.000000E+00
 3.000000E+01  0.000000E+00  0.000000E+00
 4.000000E+01  0.000000E+00  0.000000E+00
 5.000000E+01  0.000000E+00  0.000000E+00
 6.000000E+01  0.000000E+00  0.000000E+00
 7.000000E+01  0.000000E+00  0.000000E+00
 8.000000E+01  0.000000E+00  0.000000E+00
 9.000000E+01  0.000000E+00  0.000000E+00
 1.000000E+02  0.000000E+00  0.000000E+00
 0.000000E+00  1.000000E+00  0.000000E+00
 1.000000E+01  1.000000E+00  0.000000E+00
 2.000000E+01  1.000000E+00  0.000000E+00
 3.000000E+01  1.000000E+00  0.000000E+00
 4.000000E+01  1.000000E+00  0.000000E+00
 5.000000E+01  1.000000E+00  0.000000E+00
 6.000000E+01  1.000000E+00  0.000000E+00
 7.000000E+01  1.000000E+00  0.000000E+00
 8.000000E+01  1.000000E+00  0.000000E+00
 9.000000E+01  1.000000E+00  0.000000E+00
 1.000000E+02  1.000000E+00  0.000000E+00
 0.000000E+00  0.000000E+00  5.000000E+00
 1.000000E+01  0.000000E+00  5.000000E+00
 2.000000E+01  0.000000E+00  5.000000E+00
 3.000000E+01  0.000000E+00  5.000000E+00
 4.000000E+01  0.000000E+00  5.000000E+00
 5.000000E+01  0.000000E+00  5.000000E+00
 6.000000E+01  0.000000E+00  5.000000E+00
 7.000000E+01  0.000000E+00  5.000000E+00
 8.000000E+01  0.000000E+00  5.000000E+00
 9.000000E+01  0.000000E+00  5.000000E+00
 1.000000E+02  0.000000E+00  5.000000E+00
 0.000000E+00  1.000000E+00  5.000000E+00
 1.000000E+01  1.000000E+00  5.000000E+00
 2.000000E+01  1.000000E+00  5.000000E+00
 3.000000E+01  1.000000E+00  5.000000E+00
 4.000000E+01  1.000000E+00  5.000000E+00
 5.000000E+01  1.000000E+00  5.000000E+00
 6.000000E+01  1.000000E+00  5.000000E+00
 7.000000E+01  1.000000E+00  5.000000E+00
 8.000000E+01  1.000000E+00  5.000000E+00
 9.000000E+01  1.000000E+00  5.000000E+00
 1.000000E+02  1.000000E+00  5.000000E+00
 0.000000E+00  0.000000E+00  1.000000E+01
 1.000000E+01  0.000000E+00  1.000000E+01
 2.000000E+01  0.000000E+00  1.000000E+01
 3.000000E+01  0.000000E+00  1.000000E+01
 4.000000E+01  0.000000E+00  1.000000E+01
 5.000000E+01  0.000000E+00  1.000000E+01
 6.000000E+01  0.000000E+00  1.000000E+01
 7.000000E+01  0.000000E+00  1.000000E+01
 8.000000E+01  0.000000E+00  1.000000E+01
 9.000000E+01  0.000000E+00  1.000000E+01
 1.000000E+02  0.000000E+00  1.000000E+01
 0.000000E+00  1.000000E+00  1.000000E+01
 1.000000E+01  1.000000E+00  1.000000E+01
 2.000000E+01  1.000000E+00  1.000000E+01
 3.000000E+01  1.000000E+00  1.000000E+01
 4.000000E+01  1.000000E+00  1.000000E+01
 5.000000E+01  1.000000E+00  1.000000E+01
 6.000000E+01  1.000000E+00  1.000000E+01
 7.000000E+01  1.000000E+00  1.000000E+01
 8.000000E+01  1.000000E+00  1.000000E+01
 9.000000E+01  1.000000E+00  1.000000E+01
 1.000000E+02  1.000000E+00  1.000000E+01
 0.000000E+00  0.000000E+00  1.500000E+01
 1.000000E+01  0.000000E+00  1.500000E+01
 2.000000E+01  0.000000E+00  1.500000E+01
 3.000000E+01  0.000000E+00  1.500000E+01
 4.000000E+01  0.000000E+00  1.500000E+01
 5.000000E+01  0.000000E+00  1.500000E+01
 6.000000E+01  0.000000E+00  1.500000E+01
 7.000000E+01  0.000000E+00  1.500000E+01
 8.000000E+01  0.000000E+00  1.500000E+01
 9.000000E+01  0.000000E+00  1.500000E+01
 1.000000E+02  0.000000E+00  1.500000E+01
 0.000000E+00  1.000000E+00  1.500000E+01
 1.000000E+01  1.000000E+00  1.500000E+01
 2.000000E+01  1.000000E+00  1.500000E+01
 3.000000E+01  1.000000E+00  1.500000E+01
 4.000000E+01  1.000000E+00  1.500000E+01
 5.000000E+01  1.000000E+00  1.500000E+01
 6.000000E+01  1.000000E+00  1.500000E+01
 7.000000E+01  1.000000E+00  1.500000E+01
 8.000000E+01  1.000000E+00  1.500000E+01
 9.000000E+01  1.000000E+00  1.500000E+01
 1.000000E+02  1.000000E+00  1.500000E+01
 0.000000E+00  0.000000E+00  2.000000E+01
 1.000000E+01  0.000000E+00  2.000000E+01
 2.000000E+01  0.000000E+00  2.000000E+01
 3.000000E+01  0.000000E+00  2.000000E+01
 4.000000E+01  0.000000E+00  2.000000E+01
 5.000000E+01  0.000000E+00  2.000000E+01
 6.000000E+01  0.000000E+00  2.000000E+01
 7.000000E+01  0.000000E+00  2.000000E+01
 8.000000E+01  0.000000E+00  2.000000E+01
 9.000000E+01  0.000000E+00  2.000000E+01
 1.000000E+02  0.000000E+00  2.000000E+01
 0.000000E+00  1.000000E+00  2.000000E+01
 1.000000E+01  1.000000E+00  2.000000E+01
 2.000000E+01  1.000000E+00  2.000000E+01
 3.000000E+01  1.000000E+00  2.000000E+01
 4.000000E+01  1.000000E+00  2.000000E+01
 5.000000E+01  1.000000E+00  2.000000E+01
 6.000000E+01  1.000000E+00  2.000000E+01
 7.000000E+01  1.000000E+00  2.000000E+01
 8.000000E+01  1.000000E+00  2.000000E+01
 9.000000E+01  1.000000E+00  2.000000E+01
 1.000000E+02  1.000000E+00  2.000000E+01
 0.000000E+00  0.000000E+00  2.500000E+01
 1.000000E+01  0.000000E+00  2.500000E+01
 2.000000E+01  0.000000E+00  2.500000E+01
 3.000000E+01  0.000000E+00  2.500000E+01
 4.000000E+01  0.000000E+00  2.500000E+01
 5.000000E+01  0.000000E+00  2.500000E+01
 6.000000E+01  0.000000E+00  2.500000E+01
 7.000000E+01  0.000000E+00  2.500000E+01
 8.000000E+01  0.000000E+00  2.500000E+01
 9.000000E+01  0.000000E+00  2.500000E+01
 1.000000E+02  0.000000E+00  2.500000E+01
 0.000000E+00  1.000000E+00  2.500000E+01
 1.000000E+01  1.000000E+00  2.500000E+01
 2.000000E+01  1.000000E+00  2.500000E+01
 3.000000E+01  1.000000E+00  2.500000E+01
 4.000000E+01  1.000000E+00  2.500000E+01
 5.000000E+01  1.000000E+00  2.500000E+01
 6.000000E+01  1.000000E+00  2.500000E+01
 7.000000E+01  1.000000E+00  2.500000E+01
 8.000000E+01  1.000000E+00  2.500000E+01
 9.000000E+01  1.000000E+00  2.500000E+01
 1.000000E+02  1.000000E+00  2.500000E+01
 0.000000E+00  0.000000E+00  3.000000E+01
 1.000000E+01  0.000000E+00  3.000000E+01
 2.000000E+01  0.000000E+00  3.000000E+01
 3.000000E+01  0.000000E+00  3.000000E+01
 4.000000E+01  0.000000E+00  3.000000E+01
 5.000000E+01  0.000000E+00  3.000000E+01
 6.000000E+01  0.000000E+00  3.000000E+01
 7.000000E+01  0.000000E+00  3.000000E+01
 8.000000E+01  0.000000E+00  3.000000E+01
 9.000000E+01  0.000000E+00  3.000000E+01
 1.000000E+02  0.000000E+00  3.000000E+01
 0.000000E+00  1.000000E+00  3.000000E+01
 1.000000E+01  1.000000E+00  3.000000E+01
 2.000000E+01  1.000000E+00  3.000000E+01
 3.000000E+01  1.000000E+00  3.000000E+01
 4.000000E+01  1.000000E+00  3.000000E+01
 5.000000E+01  1.000000E+00  3.000000E+01
 6.000000E+01  1.000000E+00  3.000000E+01
 7.000000E+01  1.000000E+00  3.000000E+01
 8.000000E+01  1.000000E+00  3.000000E+01
 9.000000E+01  1.000000E+00  3.000000E+01
 1.000000E+02  1.000000E+00  3.000000E+01
 0.000000E+00  0.000000E+00  3.500000E+01
 1.000000E+01  0.000000E+00  3.500000E+01
 2.000000E+01  0.000000E+00  3.500000E+01
 3.000000E+01  0.000000E+00  3.500000E+01
 4.000000E+01  0.000000E+00  3.500000E+01
 5.000000E+01  0.000000E+00  3.500000E+01
 6.000000E+01  0.000000E+00  3.500000E+01
 7.000000E+01  0.000000E+00  3.500000E+01
 8.000000E+01  0.000000E+00  3.500000E+01
 9.000000E+01  0.000000E+00  3.500000E+01
 1.000000E+02  0.000000E+00  3.500000E+01
 0.000000E+00  1.000000E+00  3.500000E+01
 1.000000E+01  1.000000E+00  3.500000E+01
 2.000000E+01  1.000000E+00  3.500000E+01
 3.000000E+01  1.000000E+00  3.500000E+01
 4.000000E+01  1.000000E+00  3.500000E+01
 5.000000E+01  1.000000E+00  3.500000E+01
 6.000000E+01  1.000000E+00  3.500000E+01
 7.000000E+01  1.000000E+00  3.500000E+01
 8.000000E+01  1.000000E+00  3.500000E+01
 9.000000E+01  1.000000E+00  3.500000E+01
 1.000000E+02  1.000000E+00  3.500000E+01
 0.000000E+00  0.000000E+00  4.000000E+01
 1.000000E+01  0.000000E+00  4.000000E+01
 2.000000E+01  0.000000E+00  4.000000E+01
 3.000000E+01  0.000000E+00  4.000000E+01
 4.000000E+01  0.000000E+00  4.000000E+01
 5.000000E+01  0.000000E+00  4.000000E+01
 6.000000E+01  0.000000E+00  4.000000E+01
 7.000000E+01  0.000000E+00  4.000000E+01
 8.000000E+01  0.000000E+00  4.000000E+01
 9.000000E+01  0.000000E+00  4.000000E+01
 1.000000E+02  0.000000E+00  4.000000E+01
 0.000000E+00  1.000000E+00  4.000000E+01
 1.000000E+01  1.000000E+00  4.000000E+01
 2.000000E+01  1.000000E+00  4.000000E+01
 3.000000E+01  1.000000E+00  4.000000E+01
 4.000000E+01  1.000000E+00  4.000000E+01
 5.000000E+01  1.000000E+00  4.000000E+01
 6.000000E+01  1.000000E+00  4.000000E+01
 7.000000E+01  1.000000E+00  4.000000E+01
 8.000000E+01  1.000000E+00  4.000000E+01
 9.000000E+01  1.000000E+00  4.000000E+01
 1.000000E+02  1.000000E+00  4.000000E+01
 0.000000E+00  0.000000E+00  4.500000E+01
 1.000000E+01  0.000000E+00  4.500000E+01
 2.000000E+01  0.000000E+00  4.500000E+01
 3.000000E+01  0.000000E+00  4.500000E+01
 4.000000E+01  0.000000E+00  4.500000E+01
 5.000000E+01  0.000000E+00  4.500000E+01
 6.000000E+01  0.000000E+00  4.500000E+01
 7.000000E+01  0.000000E+00  4.500000E+01
 8.000000E+01  0.000000E+00  4.500000E+01
 9.000000E+01  0.000000E+00  4.500000E+01
 1.000000E+02  0.000000E+00  4.500000E+01
 0.000000E+00  1.000000E+00  4.500000E+01
 1.000000E+01  1.000000E+00  4.500000E+01
 2.000000E+01  1.000000E+00  4.500000E+01
 3.000000E+01  1.000000E+00  4.500000E+01
 4.000000E+01  1.000000E+00  4.500000E+01
 5.000000E+01  1.000000E+00  4.500000E+01
 6.000000E+01  1.000000E+00  4.500000E+01
 7.000000E+01  1.000000E+00  4.500000E+01
 8.000000E+01  1.000000E+00  4.500000E+01
 9.000000E+01  1.000000E+00  4.500000E+01
 1.000000E+02  1.000000E+00  4.500000E+01
 0.000000E+00  0.000000E+00  5.000000E+01
 1.000000E+01  0.000000E+00  5.000000E+01
 2.000000E+01  0.000000E+00  5.000000E+01
 3.000000E+01  0.000000E+00  5.000000E+01
 4.000000E+01  0.000000E+00  5.000000E+01
 5.000000E+01  0.000000E+00  5.000000E+01
 6.000000E+01  0.000000E+00  5.000000E+01
 7.000000E+01  0.000000E+00  5.000000E+01
 8.000000E+01  0.000000E+00  5.000000E+01
 9.000000E+01  0.000000E+00  5.000000E+01
 1.000000E+02  0.000000E+00  5.000000E+01
 0.000000E+00  1.000000E+00  5.000000E+01
 1.000000E+01  1.000000E+00  5.000000E+01
 2.000000E+01  1.000000E+00  5.000000E+01
 3.000000E+01  1.000000E+00  5.000000E+01
[...]
CELL_DATA      200
SCALARS Porosity             float 1
LOOKUP_TABLE default
 4.377083E-01  4.377098E-01  4.377100E-01  4.377100E-01  4.377100E-01  4.377100E-01  4.377100E-01  4.377100E-01  4.377100E-01  4.377100E-01
 4.376945E-01  4.377075E-01  4.377097E-01  4.377099E-01  4.377100E-01  4.377100E-01  4.377100E-01  4.377100E-01  4.377100E-01  4.377100E-01
 4.376355E-01  4.376964E-01  4.377081E-01  4.377098E-01  4.377100E-01  4.377100E-01  4.377100E-01  4.377100E-01  4.377100E-01  4.377100E-01
 4.374742E-01  4.376583E-01  4.377018E-01  4.377090E-01  4.377099E-01  4.377100E-01  4.377100E-01  4.377100E-01  4.377100E-01  4.377100E-01
 4.372064E-01  4.375653E-01  4.376838E-01  4.377065E-01  4.377096E-01  4.377099E-01  4.377100E-01  4.377100E-01  4.377100E-01  4.377100E-01
 4.371878E-01  4.374108E-01  4.376458E-01  4.377008E-01  4.377090E-01  4.377099E-01  4.377100E-01  4.377100E-01  4.377100E-01  4.377100E-01
 4.383861E-01  4.373094E-01  4.375923E-01  4.376915E-01  4.377078E-01  4.377098E-01  4.377100E-01  4.377100E-01  4.377100E-01  4.377100E-01
 4.383865E-01  4.372800E-01  4.375652E-01  4.376852E-01  4.377070E-01  4.377097E-01  4.377099E-01  4.377100E-01  4.377100E-01  4.377100E-01
 4.383868E-01  4.372677E-01  4.375495E-01  4.376810E-01  4.377063E-01  4.377096E-01  4.377099E-01  4.377100E-01  4.377100E-01  4.377100E-01
 4.383869E-01  4.372628E-01  4.375422E-01  4.376788E-01  4.377060E-01  4.377096E-01  4.377099E-01  4.377100E-01  4.377100E-01  4.377100E-01
 4.383868E-01  4.372627E-01  4.375422E-01  4.376788E-01  4.377060E-01  4.377096E-01  4.377099E-01  4.377100E-01  4.377100E-01  4.377100E-01
 4.383865E-01  4.372676E-01  4.375495E-01  4.376810E-01  4.377063E-01  4.377096E-01  4.377099E-01  4.377100E-01  4.377100E-01  4.377100E-01
 4.383859E-01  4.372799E-01  4.375652E-01  4.376852E-01  4.377070E-01  4.377097E-01  4.377099E-01  4.377100E-01  4.377100E-01  4.377100E-01
 4.383853E-01  4.373093E-01  4.375924E-01  4.376915E-01  4.377079E-01  4.377098E-01  4.377100E-01  4.377100E-01  4.377100E-01  4.377100E-01
 4.371874E-01  4.374109E-01  4.376458E-01  4.377008E-01  4.377090E-01  4.377099E-01  4.377100E-01  4.377100E-01  4.377100E-01  4.377100E-01
 4.372064E-01  4.375654E-01  4.376839E-01  4.377066E-01  4.377096E-01  4.377099E-01  4.377100E-01  4.377100E-01  4.377100E-01  4.377100E-01
 4.374744E-01  4.376584E-01  4.377019E-01  4.377090E-01  4.377099E-01  4.377100E-01  4.377100E-01  4.377100E-01  4.377100E-01  4.377100E-01
 4.376357E-01  4.376965E-01  4.377081E-01  4.377098E-01  4.377100E-01  4.377100E-01  4.377100E-01  4.377100E-01  4.377100E-01  4.377100E-01
 4.376946E-01  4.377076E-01  4.377097E-01  4.377099E-01  4.377100E-01  4.377100E-01  4.377100E-01  4.377100E-01  4.377100E-01  4.377100E-01
 4.377083E-01  4.377098E-01  4.377100E-01  4.377100E-01  4.377100E-01  4.377100E-01  4.377100E-01  4.377100E-01  4.377100E-01  4.377100E-01


SCALARS Permeability         float 1
LOOKUP_TABLE default
 8.829720E-13  8.829793E-13  8.829804E-13  8.829805E-13  8.829805E-13  8.829805E-13  8.829805E-13  8.829805E-13  8.829805E-13  8.829805E-13
 8.829023E-13  8.829681E-13  8.829788E-13  8.829803E-13  8.829805E-13  8.829805E-13  8.829805E-13  8.829805E-13  8.829805E-13  8.829805E-13
 8.826041E-13  8.829117E-13  8.829708E-13  8.829793E-13  8.829803E-13  8.829805E-13  8.829805E-13  8.829805E-13  8.829805E-13  8.829805E-13
 8.817893E-13  8.827191E-13  8.829392E-13  8.829754E-13  8.829799E-13  8.829804E-13  8.829805E-13  8.829805E-13  8.829805E-13  8.829805E-13
 8.804369E-13  8.822492E-13  8.828483E-13  8.829630E-13  8.829786E-13  8.829802E-13  8.829804E-13  8.829805E-13  8.829805E-13  8.829805E-13
 8.803432E-13  8.814690E-13  8.826558E-13  8.829338E-13  8.829753E-13  8.829799E-13  8.829804E-13  8.829805E-13  8.829805E-13  8.829805E-13
 8.864019E-13  8.809572E-13  8.823858E-13  8.828868E-13  8.829696E-13  8.829794E-13  8.829803E-13  8.829804E-13  8.829805E-13  8.829805E-13
 8.864042E-13  8.808086E-13  8.822489E-13  8.828553E-13  8.829652E-13  8.829789E-13  8.829803E-13  8.829804E-13  8.829805E-13  8.829805E-13
 8.864057E-13  8.807465E-13  8.821695E-13  8.828338E-13  8.829619E-13  8.829785E-13  8.829802E-13  8.829804E-13  8.829805E-13  8.829805E-13
 8.864061E-13  8.807216E-13  8.821325E-13  8.828228E-13  8.829602E-13  8.829783E-13  8.829802E-13  8.829804E-13  8.829805E-13  8.829805E-13
 8.864054E-13  8.807214E-13  8.821326E-13  8.828229E-13  8.829602E-13  8.829783E-13  8.829802E-13  8.829804E-13  8.829805E-13  8.829805E-13
 8.864038E-13  8.807460E-13  8.821696E-13  8.828339E-13  8.829620E-13  8.829785E-13  8.829802E-13  8.829804E-13  8.829805E-13  8.829805E-13
 8.864011E-13  8.808079E-13  8.822490E-13  8.828554E-13  8.829653E-13  8.829789E-13  8.829803E-13  8.829804E-13  8.829805E-13  8.829805E-13
 8.863980E-13  8.809565E-13  8.823860E-13  8.828870E-13  8.829697E-13  8.829794E-13  8.829803E-13  8.829805E-13  8.829805E-13  8.829805E-13
 8.803412E-13  8.814693E-13  8.826562E-13  8.829340E-13  8.829753E-13  8.829799E-13  8.829804E-13  8.829805E-13  8.829805E-13  8.829805E-13
 8.804371E-13  8.822499E-13  8.828487E-13  8.829631E-13  8.829786E-13  8.829802E-13  8.829804E-13  8.829805E-13  8.829805E-13  8.829805E-13
 8.817903E-13  8.827198E-13  8.829395E-13  8.829755E-13  8.829799E-13  8.829804E-13  8.829805E-13  8.829805E-13  8.829805E-13  8.829805E-13
 8.826049E-13  8.829121E-13  8.829709E-13  8.829794E-13  8.829803E-13  8.829805E-13  8.829805E-13  8.829805E-13  8.829805E-13  8.829805E-13
 8.829027E-13  8.829683E-13  8.829789E-13  8.829803E-13  8.829805E-13  8.829805E-13  8.829805E-13  8.829805E-13  8.829805E-13  8.829805E-13
 8.829721E-13  8.829793E-13  8.829803E-13  8.829805E-13  8.829806E-13  8.829806E-13  8.829806E-13  8.829805E-13  8.829805E-13  8.829805E-13


SCALARS Liquid_Pressure      float 1
LOOKUP_TABLE default
 8.009972E+06  7.965043E+06  7.898240E+06  7.825908E+06  7.756252E+06  7.692385E+06  7.634949E+06  7.583565E+06  7.537531E+06  7.496124E+06
 7.987274E+06  7.934660E+06  7.861417E+06  7.785151E+06  7.713356E+06  7.648379E+06  7.590375E+06  7.538698E+06  7.492508E+06  7.451009E+06
 7.990892E+06  7.919924E+06  7.832827E+06  7.748565E+06  7.672554E+06  7.605425E+06  7.546328E+06  7.494091E+06  7.447602E+06  7.405926E+06
 8.030051E+06  7.922402E+06  7.812100E+06  7.715640E+06  7.633508E+06  7.563331E+06  7.502708E+06  7.449693E+06  7.402792E+06  7.360871E+06
 8.123224E+06  7.943746E+06  7.798259E+06  7.685514E+06  7.595704E+06  7.521820E+06  7.459369E+06  7.405431E+06  7.358042E+06  7.315833E+06
 8.306402E+06  7.983785E+06  7.789168E+06  7.656895E+06  7.558466E+06  7.480548E+06  7.416140E+06  7.361221E+06  7.313316E+06  7.270803E+06
 8.649870E+06  8.035102E+06  7.780889E+06  7.628065E+06  7.521001E+06  7.439132E+06  7.372830E+06  7.316970E+06  7.268572E+06  7.225768E+06
 8.823227E+06  8.068588E+06  7.767698E+06  7.597097E+06  7.482489E+06  7.397191E+06  7.329257E+06  7.272590E+06  7.223770E+06  7.180719E+06
 8.897343E+06  8.076452E+06  7.745607E+06  7.562342E+06  7.442209E+06  7.354390E+06  7.285260E+06  7.228003E+06  7.178876E+06  7.135645E+06
 8.905160E+06  8.057626E+06  7.712438E+06  7.522670E+06  7.399634E+06  7.310484E+06  7.240723E+06  7.183155E+06  7.133866E+06  7.090540E+06
 8.859941E+06  8.012450E+06  7.667279E+06  7.477520E+06  7.354488E+06  7.265342E+06  7.195582E+06  7.138015E+06  7.088727E+06  7.045401E+06
 8.761691E+06  7.940926E+06  7.610130E+06  7.426890E+06  7.306773E+06  7.218963E+06  7.149838E+06  7.092583E+06  7.043457E+06  7.000226E+06
 8.597167E+06  7.842723E+06  7.541906E+06  7.371346E+06  7.256762E+06  7.171479E+06  7.103553E+06  7.046889E+06  6.998071E+06  6.955021E+06
 8.333460E+06  7.718914E+06  7.464791E+06  7.312017E+06  7.204984E+06  7.123136E+06  7.056844E+06  7.000989E+06  6.952593E+06  6.909791E+06
 7.899756E+06  7.577298E+06  7.382771E+06  7.250553E+06  7.152162E+06  7.074268E+06  7.009872E+06  6.954959E+06  6.907057E+06  6.864546E+06
 7.626344E+06  7.446975E+06  7.301571E+06  7.188884E+06  7.099114E+06  7.025256E+06  6.962820E+06  6.908888E+06  6.861503E+06  6.819296E+06
 7.442928E+06  7.335355E+06  7.225127E+06  7.128724E+06  7.046634E+06  6.976484E+06  6.915875E+06  6.862868E+06  6.815972E+06  6.774054E+06
 7.313515E+06  7.242604E+06  7.155572E+06  7.071365E+06  6.995397E+06  6.928294E+06  6.869213E+06  6.816984E+06  6.770502E+06  6.728830E+06
 7.219631E+06  7.167064E+06  7.093880E+06  7.017668E+06  6.945913E+06  6.880963E+06  6.822975E+06  6.771308E+06  6.725126E+06  6.683633E+06
 7.152050E+06  7.107163E+06  7.040416E+06  6.968137E+06  6.898521E+06  6.834683E+06  6.777265E+06  6.725893E+06  6.679868E+06  6.638469E+06


SCALARS Temperature          float 1
LOOKUP_TABLE default
 1.500913E+02  1.500885E+02  1.500798E+02  1.500665E+02  1.500537E+02  1.500436E+02  1.500351E+02  1.500275E+02  1.500205E+02  1.500144E+02
 1.501014E+02  1.501092E+02  1.501106E+02  1.500973E+02  1.500750E+02  1.500543E+02  1.500393E+02  1.500288E+02  1.500209E+02  1.500145E+02
 1.501013E+02  1.501141E+02  1.501252E+02  1.501214E+02  1.500988E+02  1.500700E+02  1.500469E+02  1.500317E+02  1.500218E+02  1.500148E+02
 1.500964E+02  1.501148E+02  1.501323E+02  1.501379E+02  1.501207E+02  1.500881E+02  1.500573E+02  1.500363E+02  1.500235E+02  1.500154E+02
 1.500842E+02  1.501131E+02  1.501368E+02  1.501497E+02  1.501395E+02  1.501064E+02  1.500693E+02  1.500421E+02  1.500258E+02  1.500162E+02
 1.500592E+02  1.501096E+02  1.501411E+02  1.501597E+02  1.501557E+02  1.501241E+02  1.500821E+02  1.500488E+02  1.500286E+02  1.500172E+02
 1.500098E+02  1.501064E+02  1.501471E+02  1.501699E+02  1.501707E+02  1.501409E+02  1.500949E+02  1.500558E+02  1.500316E+02  1.500183E+02
 1.500033E+02  1.501140E+02  1.501578E+02  1.501818E+02  1.501850E+02  1.501563E+02  1.501070E+02  1.500626E+02  1.500345E+02  1.500194E+02
 1.500012E+02  1.501192E+02  1.501658E+02  1.501909E+02  1.501958E+02  1.501680E+02  1.501164E+02  1.500681E+02  1.500370E+02  1.500203E+02
 1.500011E+02  1.501229E+02  1.501714E+02  1.501975E+02  1.502034E+02  1.501759E+02  1.501227E+02  1.500717E+02  1.500386E+02  1.500209E+02
 1.500011E+02  1.501229E+02  1.501714E+02  1.501975E+02  1.502034E+02  1.501759E+02  1.501227E+02  1.500718E+02  1.500386E+02  1.500209E+02
 1.500025E+02  1.501225E+02  1.501705E+02  1.501966E+02  1.502019E+02  1.501734E+02  1.501203E+02  1.500703E+02  1.500380E+02  1.500207E+02
 1.500062E+02  1.501208E+02  1.501677E+02  1.501936E+02  1.501974E+02  1.501671E+02  1.501145E+02  1.500668E+02  1.500365E+02  1.500202E+02
 1.500149E+02  1.501179E+02  1.501631E+02  1.501885E+02  1.501896E+02  1.501568E+02  1.501056E+02  1.500617E+02  1.500343E+02  1.500194E+02
 1.500775E+02  1.501320E+02  1.501668E+02  1.501873E+02  1.501823E+02  1.501453E+02  1.500956E+02  1.500559E+02  1.500318E+02  1.500185E+02
 1.501157E+02  1.501476E+02  1.501738E+02  1.501874E+02  1.501735E+02  1.501317E+02  1.500845E+02  1.500497E+02  1.500292E+02  1.500175E+02
 1.501411E+02  1.501619E+02  1.501810E+02  1.501852E+02  1.501603E+02  1.501152E+02  1.500725E+02  1.500436E+02  1.500267E+02  1.500166E+02
 1.501592E+02  1.501739E+02  1.501849E+02  1.501753E+02  1.501398E+02  1.500955E+02  1.500603E+02  1.500379E+02  1.500245E+02  1.500158E+02
 1.501722E+02  1.501801E+02  1.501765E+02  1.501503E+02  1.501107E+02  1.500744E+02  1.500492E+02  1.500332E+02  1.500227E+02  1.500152E+02
 1.501679E+02  1.501572E+02  1.501345E+02  1.501040E+02  1.500758E+02  1.500549E+02  1.500404E+02  1.500298E+02  1.500215E+02  1.500148E+02


SCALARS pH                   float 1
LOOKUP_TABLE default
 6.145642E+00  6.145621E+00  6.145535E+00  6.145347E+00  6.145063E+00  6.144752E+00  6.144497E+00  6.144334E+00  6.144249E+00  6.144209E+00
 6.145645E+00  6.145669E+00  6.145669E+00  6.145595E+00  6.145387E+00  6.145061E+00  6.144718E+00  6.144456E+00  6.144302E+00  6.144227E+00
 6.145611E+00  6.145663E+00  6.145688E+00  6.145670E+00  6.145543E+00  6.145265E+00  6.144901E+00  6.144576E+00  6.144363E+00  6.144252E+00
 6.145323E+00  6.145640E+00  6.145688E+00  6.145697E+00  6.145624E+00  6.145402E+00  6.145051E+00  6.144690E+00  6.144427E+00  6.144280E+00
 6.142197E+00  6.145503E+00  6.145679E+00  6.145709E+00  6.145670E+00  6.145496E+00  6.145169E+00  6.144792E+00  6.144490E+00  6.144309E+00
 6.117505E+00  6.144338E+00  6.145640E+00  6.145715E+00  6.145700E+00  6.145561E+00  6.145260E+00  6.144878E+00  6.144548E+00  6.144339E+00
 5.989649E+00  6.137392E+00  6.145425E+00  6.145720E+00  6.145724E+00  6.145609E+00  6.145330E+00  6.144947E+00  6.144597E+00  6.144365E+00
 5.989636E+00  6.135705E+00  6.145340E+00  6.145735E+00  6.145748E+00  6.145648E+00  6.145383E+00  6.145000E+00  6.144635E+00  6.144385E+00
 5.989636E+00  6.134917E+00  6.145292E+00  6.145748E+00  6.145767E+00  6.145676E+00  6.145420E+00  6.145037E+00  6.144662E+00  6.144400E+00
 5.989638E+00  6.134600E+00  6.145271E+00  6.145756E+00  6.145778E+00  6.145692E+00  6.145441E+00  6.145057E+00  6.144677E+00  6.144408E+00
 5.989634E+00  6.134595E+00  6.145267E+00  6.145754E+00  6.145776E+00  6.145690E+00  6.145440E+00  6.145057E+00  6.144677E+00  6.144409E+00
 5.989630E+00  6.134908E+00  6.145287E+00  6.145746E+00  6.145767E+00  6.145676E+00  6.145420E+00  6.145036E+00  6.144662E+00  6.144400E+00
 5.989629E+00  6.135694E+00  6.145335E+00  6.145735E+00  6.145750E+00  6.145650E+00  6.145383E+00  6.144998E+00  6.144634E+00  6.144385E+00
 5.989645E+00  6.137382E+00  6.145422E+00  6.145723E+00  6.145729E+00  6.145613E+00  6.145330E+00  6.144945E+00  6.144596E+00  6.144364E+00
 6.117512E+00  6.144339E+00  6.145647E+00  6.145727E+00  6.145711E+00  6.145567E+00  6.145261E+00  6.144876E+00  6.144547E+00  6.144338E+00
 6.142210E+00  6.145517E+00  6.145699E+00  6.145730E+00  6.145688E+00  6.145504E+00  6.145170E+00  6.144790E+00  6.144489E+00  6.144309E+00
 6.145346E+00  6.145668E+00  6.145719E+00  6.145727E+00  6.145645E+00  6.145410E+00  6.145051E+00  6.144688E+00  6.144426E+00  6.144279E+00
 6.145647E+00  6.145705E+00  6.145730E+00  6.145704E+00  6.145561E+00  6.145269E+00  6.144899E+00  6.144574E+00  6.144362E+00  6.144251E+00
 6.145694E+00  6.145720E+00  6.145712E+00  6.145621E+00  6.145395E+00  6.145059E+00  6.144713E+00  6.144452E+00  6.144301E+00  6.144227E+00
 6.145689E+00  6.145658E+00  6.145556E+00  6.145351E+00  6.145057E+00  6.144744E+00  6.144491E+00  6.144331E+00  6.144248E+00  6.144208E+00


SCALARS Total_H+             float 1
LOOKUP_TABLE default
-3.047180E-03 -3.046603E-03 -3.046509E-03 -3.047214E-03 -3.048676E-03 -3.050469E-03 -3.052071E-03 -3.053204E-03 -3.053889E-03 -3.054294E-03
-3.048058E-03 -3.047014E-03 -3.046112E-03 -3.045925E-03 -3.046841E-03 -3.048682E-03 -3.050778E-03 -3.052483E-03 -3.053571E-03 -3.054181E-03
-3.048813E-03 -3.047609E-03 -3.046381E-03 -3.045606E-03 -3.045907E-03 -3.047441E-03 -3.049665E-03 -3.051749E-03 -3.053199E-03 -3.054031E-03
-3.048575E-03 -3.048164E-03 -3.046728E-03 -3.045587E-03 -3.045383E-03 -3.046538E-03 -3.048714E-03 -3.051036E-03 -3.052796E-03 -3.053853E-03
-3.032711E-03 -3.048290E-03 -3.047044E-03 -3.045647E-03 -3.045057E-03 -3.045856E-03 -3.047912E-03 -3.050377E-03 -3.052393E-03 -3.053661E-03
-2.895297E-03 -3.042790E-03 -3.047175E-03 -3.045676E-03 -3.044802E-03 -3.045307E-03 -3.047236E-03 -3.049791E-03 -3.052013E-03 -3.053471E-03
-2.263261E-03 -3.003921E-03 -3.046179E-03 -3.045574E-03 -3.044520E-03 -3.044816E-03 -3.046652E-03 -3.049284E-03 -3.051677E-03 -3.053297E-03
-2.263186E-03 -2.994081E-03 -3.045397E-03 -3.045280E-03 -3.044159E-03 -3.044340E-03 -3.046140E-03 -3.048856E-03 -3.051398E-03 -3.053153E-03
-2.263112E-03 -2.989367E-03 -3.044841E-03 -3.045023E-03 -3.043863E-03 -3.043973E-03 -3.045755E-03 -3.048538E-03 -3.051192E-03 -3.053046E-03
-2.263087E-03 -2.987425E-03 -3.044524E-03 -3.044832E-03 -3.043647E-03 -3.043724E-03 -3.045511E-03 -3.048346E-03 -3.051070E-03 -3.052985E-03
-2.263130E-03 -2.987460E-03 -3.044548E-03 -3.044849E-03 -3.043658E-03 -3.043731E-03 -3.045514E-03 -3.048346E-03 -3.051068E-03 -3.052982E-03
-2.263220E-03 -2.989371E-03 -3.044762E-03 -3.044893E-03 -3.043710E-03 -3.043835E-03 -3.045661E-03 -3.048488E-03 -3.051167E-03 -3.053036E-03
-2.263352E-03 -2.994035E-03 -3.045195E-03 -3.044985E-03 -3.043831E-03 -3.044057E-03 -3.045954E-03 -3.048759E-03 -3.051354E-03 -3.053135E-03
-2.263466E-03 -3.003775E-03 -3.045811E-03 -3.045085E-03 -3.044005E-03 -3.044392E-03 -3.046384E-03 -3.049148E-03 -3.051617E-03 -3.053273E-03
-2.895103E-03 -3.042283E-03 -3.046497E-03 -3.044905E-03 -3.044055E-03 -3.044733E-03 -3.046892E-03 -3.049623E-03 -3.051940E-03 -3.053442E-03
-3.031999E-03 -3.047370E-03 -3.045997E-03 -3.044554E-03 -3.044081E-03 -3.045162E-03 -3.047523E-03 -3.050195E-03 -3.052315E-03 -3.053630E-03
-3.047375E-03 -3.046817E-03 -3.045295E-03 -3.044191E-03 -3.044243E-03 -3.045800E-03 -3.048330E-03 -3.050864E-03 -3.052723E-03 -3.053824E-03
-3.047148E-03 -3.045839E-03 -3.044595E-03 -3.044015E-03 -3.044749E-03 -3.046767E-03 -3.049341E-03 -3.051608E-03 -3.053139E-03 -3.054006E-03
-3.045959E-03 -3.044890E-03 -3.044159E-03 -3.044406E-03 -3.045882E-03 -3.048187E-03 -3.050558E-03 -3.052391E-03 -3.053531E-03 -3.054164E-03
-3.044929E-03 -3.044612E-03 -3.044982E-03 -3.046237E-03 -3.048159E-03 -3.050238E-03 -3.051979E-03 -3.053167E-03 -3.053872E-03 -3.054286E-03


SCALARS Total_SiO2(aq)       float 1
LOOKUP_TABLE default
 1.040316E-02  1.040020E-02  1.039905E-02  1.039784E-02  1.039671E-02  1.039581E-02  1.039507E-02  1.039440E-02  1.039380E-02  1.039328E-02
 1.042985E-02  1.040614E-02  1.040223E-02  1.040058E-02  1.039861E-02  1.039678E-02  1.039546E-02  1.039453E-02  1.039383E-02  1.039329E-02
 1.053872E-02  1.042746E-02  1.040648E-02  1.040298E-02  1.040070E-02  1.039818E-02  1.039615E-02  1.039480E-02  1.039393E-02  1.039332E-02
 1.083790E-02  1.049794E-02  1.041880E-02  1.040583E-02  1.040272E-02  1.039977E-02  1.039707E-02  1.039521E-02  1.039408E-02  1.039338E-02
 1.141699E-02  1.067018E-02  1.045252E-02  1.041144E-02  1.040481E-02  1.040140E-02  1.039813E-02  1.039573E-02  1.039429E-02  1.039345E-02
 1.223101E-02  1.098445E-02  1.052340E-02  1.042303E-02  1.040741E-02  1.040303E-02  1.039926E-02  1.039633E-02  1.039454E-02  1.039354E-02
 1.306614E-02  1.139489E-02  1.062746E-02  1.044112E-02  1.041077E-02  1.040466E-02  1.040039E-02  1.039695E-02  1.039481E-02  1.039364E-02
 1.306499E-02  1.150380E-02  1.068061E-02  1.045369E-02  1.041360E-02  1.040615E-02  1.040145E-02  1.039755E-02  1.039507E-02  1.039374E-02
 1.306432E-02  1.155233E-02  1.071169E-02  1.046233E-02  1.041573E-02  1.040728E-02  1.040228E-02  1.039803E-02  1.039529E-02  1.039382E-02
 1.306416E-02  1.157201E-02  1.072634E-02  1.046692E-02  1.041703E-02  1.040804E-02  1.040284E-02  1.039836E-02  1.039544E-02  1.039388E-02
 1.306440E-02  1.157208E-02  1.072634E-02  1.046691E-02  1.041702E-02  1.040804E-02  1.040284E-02  1.039836E-02  1.039544E-02  1.039388E-02
 1.306510E-02  1.155275E-02  1.071206E-02  1.046279E-02  1.041623E-02  1.040775E-02  1.040262E-02  1.039823E-02  1.039538E-02  1.039386E-02
 1.306630E-02  1.150458E-02  1.068140E-02  1.045465E-02  1.041464E-02  1.040707E-02  1.040210E-02  1.039792E-02  1.039525E-02  1.039381E-02
 1.306791E-02  1.139603E-02  1.062873E-02  1.044263E-02  1.041236E-02  1.040603E-02  1.040132E-02  1.039746E-02  1.039505E-02  1.039374E-02
 1.223288E-02  1.098620E-02  1.052543E-02  1.042530E-02  1.040966E-02  1.040485E-02  1.040043E-02  1.039695E-02  1.039482E-02  1.039365E-02
 1.141941E-02  1.067281E-02  1.045548E-02  1.041458E-02  1.040771E-02  1.040358E-02  1.039946E-02  1.039640E-02  1.039459E-02  1.039357E-02
 1.084127E-02  1.050165E-02  1.042279E-02  1.040982E-02  1.040612E-02  1.040212E-02  1.039840E-02  1.039586E-02  1.039436E-02  1.039348E-02
 1.054328E-02  1.043232E-02  1.041148E-02  1.040758E-02  1.040425E-02  1.040041E-02  1.039732E-02  1.039535E-02  1.039416E-02  1.039341E-02
 1.043568E-02  1.041208E-02  1.040784E-02  1.040516E-02  1.040172E-02  1.039855E-02  1.039633E-02  1.039492E-02  1.039400E-02  1.039335E-02