# vtk DataFile Version 2.0
PFLOTRAN output
ASCII
DATASET UNSTRUCTURED_GRID
POINTS          462 float
 0.000000E+00  0.000000E+00  0.000000E+00
 1.000000E+01  0.000000E+00  0.000000E+00
 2.000000E+01  0.000000E+00  0.000000E+00
 3.000000E+01  0.000000E+00  0.000000E+00
 4.000000E+01  0.000000E+00  0.000000E+00
 5.000000E+01  0.000000E+00  0.000000E+00
 6.000000E+01  0.000000E+00  0.000000E+00
 7.000000E+01  0.000000E+00  0.000000E+00
 8.000000E+01  0.000000E+00  0.000000E+00
 9.000000E+01  0.000000E+00  0.000000E+00
 1.000000E+02  0.000000E+00  0.000000E+00
 0.000000E+00  1.000000E+00  0.000000E+00
 1.000000E+01  1.000000E+00  0.000000E+00
 2.000000E+01  1.000000E+00  0.000000E+00
 3.000000E+01  1.000000E+00  0.000000E+00
 4.000000E+01  1.000000E+00  0.000000E+00
 5.000000E+01  1.000000E+00  0.000000E+00
 6.000000E+01  1.000000E+00  0.000000E+00
 7.000000E+01  1.000000E+00  0.000000E+00
 8.000000E+01  1.000000E+00  0.000000E+00
 9.000000E+01  1.000000E+00  0.000000E+00
 1.000000E+02  1.000000E+00  0.000000E+00
 0.000000E+00  0.000000E+00  5.000000E+00
 1.000000E+01  0.000000E+00  5.000000E+00
 2.000000E+01  0.000000E+00  5.000000E+00
 3.000000E+01  0.000000E+00  5.000000E+00
 4.000000E+01  0.000000E+00  5.000000E+00
 5.000000E+01  0.000000E+00  5.000000E+00
 6.000000E+01  0.000000E+00  5.000000E+00
 7.000000E+01  0.000000E+00  5.000000E+00
 8.000000E+01  0.000000E+00  5.000000E+00
 9.000000E+01  0.000000E+00  5.000000E+00
 1.000000E+02  0.000000E+00  5.000000E+00
 0.000000E+00  1.000000E+00  5.000000E+00
 1.000000E+01  1.000000E+00  5.000000E+00
 2.000000E+01  1.000000E+00  5.000000E+00
 3.000000E+01  1.000000E+00  5.000000E+00
 4.000000E+01  1.000000E+00  5.000000E+00
 5.000000E+01  1.000000E+00  5.000000E+00
 6.000000E+01  1.000000E+00  5.000000E+00
 7.000000E+01  1.000000E+00  5.000000E+00
 8.000000E+01  1.000000E+00  5.000000E+00
 9.000000E+01  1.000000E+00  5.000000E+00
 1.000000E+02  1.000000E+00  5.000000E+00
 0.000000E+00  0.000000E+00  1.000000E+01
 1.000000E+01  0.000000E+00  1.000000E+01
 2.000000E+01  0.000000E+00  1.000000E+01
 3.000000E+01  0.000000E+00  1.000000E+01
 4.000000E+01  0.000000E+00  1.000000E+01
 5.000000E+01  0.000000E+00  1.000000E+01
 6.000000E+01  0.000000E+00  1.000000E+01
 7.000000E+01  0.000000E+00  1.000000E+01
 8.000000E+01  0.000000E+00  1.000000E+01
 9.000000E+01  0.000000E+00  1.000000E+01
 1.000000E+02  0.000000E+00  1.000000E+01
 0.000000E+00  1.000000E+00  1.000000E+01
 1.000000E+01  1.000000E+00  1.000000E+01
 2.000000E+01  1.000000E+00  1.000000E+01
 3.000000E+01  1.000000E+00  1.000000E+01
 4.000000E+01  1.000000E+00  1.000000E+01
 5.000000E+01  1.000000E+00  1.000000E+01
 6.000000E+01  1.000000E+00  1.000000E+01
 7.000000E+01  1.000000E+00  1.000000E+01
 8.000000E+01  1.000000E+00  1.000000E+01
 9.000000E+01  1.000000E+00  1.000000E+01
 1.000000E+02  1.000000E+00  1.000000E+01
 0.000000E+00  0.000000E+00  1.500000E+01
 1.000000E+01  0.000000E+00  1.500000E+01
 2.000000E+01  0.000000E+00  1.500000E+01
 3.000000E+01  0.000000E+00  1.500000E+01
 4.000000E+01  0.000000E+00  1.500000E+01
 5.000000E+01  0.000000E+00  1.500000E+01
 6.000000E+01  0.000000E+00  1.500000E+01
 7.000000E+01  0.000000E+00  1.500000E+01
 8.000000E+01  0.000000E+00  1.500000E+01
 9.000000E+01  0.000000E+00  1.500000E+01
 1.000000E+02  0.000000E+00  1.500000E+01
 0.000000E+00  1.000000E+00  1.500000E+01
 1.000000E+01  1.000000E+00  1.500000E+01
 2.000000E+01  1.000000E+00  1.500000E+01
 3.000000E+01  1.000000E+00  1.500000E+01
 4.000000E+01  1.000000E+00  1.500000E+01
 5.000000E+01  1.000000E+00  1.500000E+01
 6.000000E+01  1.000000E+00  1.500000E+01
 7.000000E+01  1.000000E+00  1.500000E+01
 8.000000E+01  1.000000E+00  1.500000E+01
 9.000000E+01  1.000000E+00  1.500000E+01
 1.000000E+02  1.000000E+00  1.500000E+01
 0.000000E+00  0.000000E+00  2.000000E+01
 1.000000E+01  0.000000E+00  2.000000E+01
 2.000000E+01  0.000000E+00  2.000000E+01
 3.000000E+01  0.000000E+00  2.000000E+01
 4.000000E+01  0.000000E+00  2.000000E+01
 5.000000E+01  0.000000E+00  2.000000E+01
 6.000000E+01  0.000000E+00  2.000000E+01
 7.000000E+01  0.000000E+00  2.000000E+01
 8.000000E+01  0.000000E+00  2.000000E+01
 9.000000E+01  0.000000E+00  2.000000E+01
 1.000000E+02  0.000000E+00  2.000000E+01
 0.000000E+00  1.000000E+00  2.000000E+01
 1.000000E+01  1.000000E+00  2.000000E+01
 2.000000E+01  1.000000E+00  2.000000E+01
 3.000000E+01  1.000000E+00  2.000000E+01
 4.000000E+01  1.000000E+00  2.000000E+01
 5.000000E+01  1.000000E+00  2.000000E+01
 6.000000E+01  1.000000E+00  2.000000E+01
 7.000000E+01  1.000000E+00  2.000000E+01
 8.000000E+01  1.000000E+00  2.000000E+01
 9.000000E+01  1.000000E+00  2.000000E+01
 1.000000E+02  1.000000E+00  2.000000E+01
 0.000000E+00  0.000000E+00  2.500000E+01
 1.000000E+01  0.000000E+00  2.500000E+01
 2.000000E+01  0.000000E+00  2.500000E+01
 3.000000E+01  0.000000E+00  2.500000E+01
 4.000000E+01  0.000000E+00  2.500000E+01
 5.000000E+01  0.000000E+00  2.500000E+01
 6.000000E+01  0.000000E+00  2.500000E+01
 7.000000E+01  0.000000E+00  2.500000E+01
 8.000000E+01  0.000000E+00  2.500000E+01
 9.000000E+01  0.000000E+00  2.500000E+01
 1.000000E+02  0.000000E+00  2.500000E+01
 0.000000E+00  1.000000E+00  2.500000E+01
 1.000000E+01  1.000000E+00  2.500000E+01
 2.000000E+01  1.000000E+00  2.500000E+01
 3.000000E+01  1.000000E+00  2.500000E+01
 4.000000E+01  1.000000E+00  2.500000E+01
 5.000000E+01  1.000000E+00  2.500000E+01
 6.000000E+01  1.000000E+00  2.500000E+01
 7.000000E+01  1.000000E+00  2.500000E+01
 8.000000E+01  1.000000E+00  2.500000E+01
 9.000000E+01  1.000000E+00  2.500000E+01
 1.000000E+02  1.000000E+00  2.500000E+01
 0.000000E+00  0.000000E+00  3.000000E+01
 1.000000E+01  0.000000E+00  3.000000E+01
 2.000000E+01  0.000000E+00  3.000000E+01
 3.000000E+01  0.000000E+00  3.000000E+01
 4.000000E+01  0.000000E+00  3.000000E+01
 5.000000E+01  0.000000E+00  3.000000E+01
 6.000000E+01  0.000000E+00  3.000000E+01
 7.000000E+01  0.000000E+00  3.000000E+01
 8.000000E+01  0.000000E+00  3.000000E+01
 9.000000E+01  0.000000E+00  3.000000E+01
 1.000000E+02  0.000000E+00  3.000000E+01
 0.000000E+00  1.000000E+00  3.000000E+01
 1.000000E+01  1.000000E+00  3.000000E+01
 2.000000E+01  1.000000E+00  3.000000E+01
 3.000000E+01  1.000000E+00  3.000000E+01
 4.000000E+01  1.000000E+00  3.000000E+01
 5.000000E+01  1.000000E+00  3.000000E+01
 6.000000E+01  1.000000E+00  3.000000E+01
 7.000000E+01  1.000000E+00  3.000000E+01
 8.000000E+01  1.000000E+00  3.000000E+01
 9.000000E+01  1.000000E+00  3.000000E+01
 1.000000E+02  1.000000E+00  3.000000E+01
 0.000000E+00  0.000000E+00  3.500000E+01
 1.000000E+01  0.000000E+00  3.500000E+01
 2.000000E+01  0.000000E+00  3.500000E+01
 3.000000E+01  0.000000E+00  3.500000E+01
 4.000000E+01  0.000000E+00  3.500000E+01
 5.000000E+01  0.000000E+00  3.500000E+01
 6.000000E+01  0.000000E+00  3.500000E+01
 7.000000E+01  0.000000E+00  3.500000E+01
 8.000000E+01  0.000000E+00  3.500000E+01
 9.000000E+01  0.000000E+00  3.500000E+01
 1.000000E+02  0.000000E+00  3.500000E+01
 0.000000E+00  1.000000E+00  3.500000E+01
 1.000000E+01  1.000000E+00  3.500000E+01
 2.000000E+01  1.000000E+00  3.500000E+01
 3.000000E+01  1.000000E+00  3.500000E+01
 4.000000E+01  1.000000E+00  3.500000E+01
 5.000000E+01  1.000000E+00  3.500000E+01
 6.000000E+01  1.000000E+00  3.500000E+01
 7.000000E+01  1.000000E+00  3.500000E+01
 8.000000E+01  1.000000E+00  3.500000E+01
 9.000000E+01  1.000000E+00  3.500000E+01
 1.000000E+02  1.000000E+00  3.500000E+01
 0.000000E+00  0.000000E+00  4.000000E+01
 1.000000E+01  0.000000E+00  4.000000E+01
 2.000000E+01  0.000000E+00  4.000000E+01
 3.000000E+01  0.000000E+00  4.000000E+01
 4.000000E+01  0.000000E+00  4.000000E+01
 5.000000E+01  0.000000E+00  4.000000E+01
 6.000000E+01  0.000000E+00  4.000000E+01
 7.000000E+01  0.000000E+00  4.000000E+01
 8.000000E+01  0.000000E+00  4.000000E+01
 9.000000E+01  0.000000E+00  4.000000E+01
 1.000000E+02  0.000000E+00  4.000000E+01
 0.000000E+00  1.000000E+00  4.000000E+01
 1.000000E+01  1.000000E+00  4.000000E+01
 2.000000E+01  1.000000E+00  4.000000E+01
 3.000000E+01  1.000000E+00  4.000000E+01
 4.000000E+01  1.000000E+00  4.000000E+01
 5.000000E+01  1.000000E+00  4.000000E+01
 6.000000E+01  1.000000E+00  4.000000E+01
 7.000000E+01  1.000000E+00  4.000000E+01
 8.000000E+01  1.000000E+00  4.000000E+01
 9.000000E+01  1.000000E+00  4.000000E+01
 1.000000E+02  1.000000E+00  4.000000E+01
 0.000000E+00  0.000000E+00  4.500000E+01
 1.000000E+01  0.000000E+00  4.500000E+01
 2.000000E+01  0.000000E+00  4.500000E+01
 3.000000E+01  0.000000E+00  4.500000E+01
 4.000000E+01  0.000000E+00  4.500000E+01
 5.000000E+01  0.000000E+00  4.500000E+01
 6.000000E+01  0.000000E+00  4.500000E+01
 7.000000E+01  0.000000E+00  4.500000E+01
 8.000000E+01  0.000000E+00  4.500000E+01
 9.000000E+01  0.000000E+00  4.500000E+01
 1.000000E+02  0.000000E+00  4.500000E+01
 0.000000E+00  1.000000E+00  4.500000E+01
 1.000000E+01  1.000000E+00  4.500000E+01
 2.000000E+01  1.000000E+00  4.500000E+01
 3.000000E+01  1.000000E+00  4.500000E+01
 4.000000E+01  1.000000E+00  4.500000E+01
 5.000000E+01  1.000000E+00  4.500000E+01
 6.000000E+01  1.000000E+00  4.500000E+01
 7.000000E+01  1.000000E+00  4.500000E+01
 8.000000E+01  1.000000E+00  4.500000E+01
 9.000000E+01  1.000000E+00  4.500000E+01
 1.000000E+02  1.000000E+00  4.500000E+01
 0.000000E+00  0.000000E+00  5.000000E+01
 1.000000E+01  0.000000E+00  5.000000E+01
 2.000000E+01  0.000000E+00  5.000000E+01
 3.000000E+01  0.000000E+00  5.000000E+01
 4.000000E+01  0.000000E+00  5.000000E+01
 5.000000E+01  0.000000E+00  5.000000E+01
 6.000000E+01  0.000000E+00  5.000000E+01
 7.000000E+01  0.000000E+00  5.000000E+01
 8.000000E+01  0.000000E+00  5.000000E+01
 9.000000E+01  0.000000E+00  5.000000E+01
 1.000000E+02  0.000000E+00  5.000000E+01
 0.000000E+00  1.000000E+00  5.000000E+01
 1.000000E+01  1.000000E+00  5.000000E+01
 2.000000E+01  1.000000E+00  5.000000E+01
 3.000000E+01  1.000000E+00  5.000000E+01
[...]
CELL_DATA      200
SCALARS Porosity             float 1
LOOKUP_TABLE default
 4.377079E-01  4.377097E-01  4.377100E-01  4.377100E-01  4.377100E-01  4.377100E-01  4.377100E-01  4.377100E-01  4.377100E-01  4.377100E-01
 4.376910E-01  4.377070E-01  4.377096E-01  4.377099E-01  4.377100E-01  4.377100E-01  4.377100E-01  4.377100E-01  4.377100E-01  4.377100E-01
 4.376187E-01  4.376932E-01  4.377076E-01  4.377097E-01  4.377099E-01  4.377100E-01  4.377100E-01  4.377100E-01  4.377100E-01  4.377100E-01
 4.374217E-01  4.376465E-01  4.376999E-01  4.377087E-01  4.377098E-01  4.377100E-01  4.377100E-01  4.377100E-01  4.377100E-01  4.377100E-01
 4.370957E-01  4.375329E-01  4.376779E-01  4.377057E-01  4.377095E-01  4.377099E-01  4.377100E-01  4.377100E-01  4.377100E-01  4.377100E-01
 4.370758E-01  4.373446E-01  4.376313E-01  4.376986E-01  4.377087E-01  4.377098E-01  4.377100E-01  4.377100E-01  4.377100E-01  4.377100E-01
 4.385157E-01  4.372219E-01  4.375660E-01  4.376873E-01  4.377073E-01  4.377097E-01  4.377099E-01  4.377100E-01  4.377100E-01  4.377100E-01
 4.385162E-01  4.371862E-01  4.375329E-01  4.376796E-01  4.377063E-01  4.377096E-01  4.377099E-01  4.377100E-01  4.377100E-01  4.377100E-01
 4.385165E-01  4.371713E-01  4.375138E-01  4.376744E-01  4.377055E-01  4.377095E-01  4.377099E-01  4.377100E-01  4.377100E-01  4.377100E-01
 4.385166E-01  4.371653E-01  4.375048E-01  4.376717E-01  4.377050E-01  4.377095E-01  4.377099E-01  4.377100E-01  4.377100E-01  4.377100E-01
 4.385165E-01  4.371653E-01  4.375048E-01  4.376717E-01  4.377051E-01  4.377095E-01  4.377099E-01  4.377100E-01  4.377100E-01  4.377100E-01
 4.385161E-01  4.371712E-01  4.375138E-01  4.376744E-01  4.377055E-01  4.377095E-01  4.377099E-01  4.377100E-01  4.377100E-01  4.377100E-01
 4.385155E-01  4.371860E-01  4.375330E-01  4.376796E-01  4.377063E-01  4.377096E-01  4.377099E-01  4.377100E-01  4.377100E-01  4.377100E-01
 4.385147E-01  4.372217E-01  4.375661E-01  4.376873E-01  4.377074E-01  4.377097E-01  4.377099E-01  4.377100E-01  4.377100E-01  4.377100E-01
 4.370754E-01  4.373447E-01  4.376314E-01  4.376987E-01  4.377087E-01  4.377098E-01  4.377100E-01  4.377100E-01  4.377100E-01  4.377100E-01
 4.370958E-01  4.375330E-01  4.376780E-01  4.377058E-01  4.377095E-01  4.377099E-01  4.377100E-01  4.377100E-01  4.377100E-01  4.377100E-01
 4.374219E-01  4.376467E-01  4.377000E-01  4.377088E-01  4.377098E-01  4.377100E-01  4.377100E-01  4.377100E-01  4.377100E-01  4.377100E-01
 4.376188E-01  4.376934E-01  4.377077E-01  4.377097E-01  4.377099E-01  4.377100E-01  4.377100E-01  4.377100E-01  4.377100E-01  4.377100E-01
 4.376911E-01  4.377070E-01  4.377096E-01  4.377099E-01  4.377100E-01  4.377100E-01  4.377100E-01  4.377100E-01  4.377100E-01  4.377100E-01
 4.377079E-01  4.377097E-01  4.377099E-01  4.377100E-01  4.377100E-01  4.377100E-01  4.377100E-01  4.377100E-01  4.377100E-01  4.377100E-01


SCALARS Permeability         float 1
LOOKUP_TABLE default
 8.829700E-13  8.829790E-13  8.829803E-13  8.829805E-13  8.829805E-13  8.829805E-13  8.829805E-13  8.829805E-13  8.829805E-13  8.829804E-13
 8.828843E-13  8.829652E-13  8.829784E-13  8.829802E-13  8.829804E-13  8.829805E-13  8.829805E-13  8.829805E-13  8.829805E-13  8.829804E-13
 8.825189E-13  8.828958E-13  8.829685E-13  8.829790E-13  8.829802E-13  8.829804E-13  8.829804E-13  8.829805E-13  8.829805E-13  8.829804E-13
 8.815238E-13  8.826598E-13  8.829296E-13  8.829742E-13  8.829797E-13  8.829803E-13  8.829804E-13  8.829804E-13  8.829805E-13  8.829804E-13
 8.798789E-13  8.820854E-13  8.828181E-13  8.829589E-13  8.829781E-13  8.829801E-13  8.829804E-13  8.829804E-13  8.829804E-13  8.829804E-13
 8.797785E-13  8.811347E-13  8.825826E-13  8.829231E-13  8.829740E-13  8.829797E-13  8.829803E-13  8.829804E-13  8.829804E-13  8.829804E-13
 8.870585E-13  8.805152E-13  8.822529E-13  8.828656E-13  8.829671E-13  8.829791E-13  8.829802E-13  8.829804E-13  8.829804E-13  8.829804E-13
 8.870612E-13  8.803353E-13  8.820858E-13  8.828269E-13  8.829617E-13  8.829785E-13  8.829802E-13  8.829804E-13  8.829804E-13  8.829804E-13
 8.870630E-13  8.802602E-13  8.819889E-13  8.828006E-13  8.829577E-13  8.829781E-13  8.829801E-13  8.829803E-13  8.829804E-13  8.829804E-13
 8.870635E-13  8.802300E-13  8.819438E-13  8.827871E-13  8.829555E-13  8.829778E-13  8.829801E-13  8.829803E-13  8.829804E-13  8.829804E-13
 8.870627E-13  8.802298E-13  8.819438E-13  8.827872E-13  8.829555E-13  8.829778E-13  8.829801E-13  8.829803E-13  8.829804E-13  8.829804E-13
 8.870608E-13  8.802596E-13  8.819890E-13  8.828007E-13  8.829577E-13  8.829781E-13  8.829801E-13  8.829803E-13  8.829804E-13  8.829804E-13
 8.870576E-13  8.803345E-13  8.820859E-13  8.828271E-13  8.829618E-13  8.829785E-13  8.829802E-13  8.829804E-13  8.829804E-13  8.829804E-13
 8.870537E-13  8.805144E-13  8.822532E-13  8.828658E-13  8.829672E-13  8.829791E-13  8.829802E-13  8.829804E-13  8.829804E-13  8.829805E-13
 8.797760E-13  8.811350E-13  8.825831E-13  8.829233E-13  8.829741E-13  8.829798E-13  8.829803E-13  8.829804E-13  8.829805E-13  8.829805E-13
 8.798791E-13  8.820862E-13  8.828186E-13  8.829591E-13  8.829782E-13  8.829801E-13  8.829804E-13  8.829804E-13  8.829805E-13  8.829805E-13
 8.815250E-13  8.826606E-13  8.829300E-13  8.829743E-13  8.829798E-13  8.829803E-13  8.829804E-13  8.829805E-13  8.829805E-13  8.829805E-13
 8.825199E-13  8.828964E-13  8.829687E-13  8.829791E-13  8.829802E-13  8.829804E-13  8.829804E-13  8.829805E-13  8.829805E-13  8.829805E-13
 8.828848E-13  8.829654E-13  8.829785E-13  8.829802E-13  8.829804E-13  8.829805E-13  8.829805E-13  8.829805E-13  8.829805E-13  8.829805E-13
 8.829701E-13  8.829790E-13  8.829803E-13  8.829804E-13  8.829805E-13  8.829805E-13  8.829805E-13  8.829805E-13  8.829805E-13  8.829805E-13


SCALARS Liquid_Pressure      float 1
LOOKUP_TABLE default
 8.009934E+06  7.965005E+06  7.898201E+06  7.825871E+06  7.756220E+06  7.692360E+06  7.634931E+06  7.583553E+06  7.537524E+06  7.496122E+06
 7.987236E+06  7.934623E+06  7.861380E+06  7.785115E+06  7.713324E+06  7.648354E+06  7.590357E+06  7.538686E+06  7.492501E+06  7.451007E+06
 7.990857E+06  7.919889E+06  7.832791E+06  7.748528E+06  7.672521E+06  7.605399E+06  7.546310E+06  7.494079E+06  7.447597E+06  7.405925E+06
 8.030032E+06  7.922371E+06  7.812064E+06  7.715603E+06  7.633474E+06  7.563304E+06  7.502689E+06  7.449681E+06  7.402786E+06  7.360869E+06
 8.123263E+06  7.943728E+06  7.798225E+06  7.685478E+06  7.595669E+06  7.521792E+06  7.459350E+06  7.405420E+06  7.358037E+06  7.315832E+06
 8.306571E+06  7.983799E+06  7.789138E+06  7.656858E+06  7.558430E+06  7.480518E+06  7.416119E+06  7.361209E+06  7.313311E+06  7.270802E+06
 8.650002E+06  8.035165E+06  7.780865E+06  7.628029E+06  7.520965E+06  7.439101E+06  7.372808E+06  7.316958E+06  7.268567E+06  7.225767E+06
 8.823247E+06  8.068679E+06  7.767678E+06  7.597061E+06  7.482453E+06  7.397159E+06  7.329235E+06  7.272577E+06  7.223765E+06  7.180718E+06
 8.897328E+06  8.076557E+06  7.745591E+06  7.562306E+06  7.442173E+06  7.354358E+06  7.285238E+06  7.227991E+06  7.178871E+06  7.135644E+06
 8.905136E+06  8.057738E+06  7.712424E+06  7.522635E+06  7.399597E+06  7.310452E+06  7.240700E+06  7.183143E+06  7.133862E+06  7.090539E+06
 8.859917E+06  8.012562E+06  7.667264E+06  7.477484E+06  7.354451E+06  7.265309E+06  7.195559E+06  7.138003E+06  7.088722E+06  7.045400E+06
 8.761676E+06  7.941032E+06  7.610114E+06  7.426854E+06  7.306736E+06  7.218931E+06  7.149816E+06  7.092572E+06  7.043453E+06  7.000226E+06
 8.597187E+06  7.842813E+06  7.541887E+06  7.371309E+06  7.256726E+06  7.171448E+06  7.103532E+06  7.046879E+06  6.998067E+06  6.955020E+06
 8.333591E+06  7.718977E+06  7.464766E+06  7.311980E+06  7.204949E+06  7.123106E+06  7.056825E+06  7.000980E+06  6.952590E+06  6.909790E+06
 7.899925E+06  7.577311E+06  7.382740E+06  7.250517E+06  7.152127E+06  7.074240E+06  7.009854E+06  6.954951E+06  6.907054E+06  6.864545E+06
 7.626381E+06  7.446957E+06  7.301536E+06  7.188847E+06  7.099080E+06  7.025230E+06  6.962804E+06  6.908881E+06  6.861501E+06  6.819296E+06
 7.442907E+06  7.335324E+06  7.225090E+06  7.128687E+06  7.046602E+06  6.976460E+06  6.915861E+06  6.862862E+06  6.815969E+06  6.774054E+06
 7.313479E+06  7.242567E+06  7.155535E+06  7.071329E+06  6.995366E+06  6.928273E+06  6.869201E+06  6.816979E+06  6.770500E+06  6.728830E+06
 7.219592E+06  7.167025E+06  7.093842E+06  7.017633E+06  6.945885E+06  6.880944E+06  6.822964E+06  6.771303E+06  6.725124E+06  6.683632E+06
 7.152010E+06  7.107124E+06  7.040379E+06  6.968104E+06  6.898496E+06  6.834666E+06  6.777255E+06  6.725888E+06  6.679866E+06  6.638468E+06


SCALARS Temperature          float 1
LOOKUP_TABLE default
 1.500947E+02  1.500961E+02  1.500924E+02  1.500813E+02  1.500668E+02  1.500536E+02  1.500427E+02  1.500335E+02  1.500254E+02  1.500183E+02
 1.501015E+02  1.501107E+02  1.501175E+02  1.501121E+02  1.500933E+02  1.500700E+02  1.500504E+02  1.500363E+02  1.500262E+02  1.500186E+02
 1.501013E+02  1.501142E+02  1.501276E+02  1.501316E+02  1.501173E+02  1.500898E+02  1.500621E+02  1.500416E+02  1.500282E+02  1.500192E+02
 1.500964E+02  1.501148E+02  1.501330E+02  1.501441E+02  1.501370E+02  1.501098E+02  1.500761E+02  1.500489E+02  1.500312E+02  1.500203E+02
 1.500842E+02  1.501131E+02  1.501370E+02  1.501533E+02  1.501530E+02  1.501287E+02  1.500912E+02  1.500576E+02  1.500351E+02  1.500218E+02
 1.500591E+02  1.501096E+02  1.501412E+02  1.501618E+02  1.501668E+02  1.501461E+02  1.501064E+02  1.500670E+02  1.500396E+02  1.500236E+02
 1.500098E+02  1.501064E+02  1.501472E+02  1.501713E+02  1.501800E+02  1.501624E+02  1.501211E+02  1.500767E+02  1.500444E+02  1.500255E+02
 1.500033E+02  1.501140E+02  1.501578E+02  1.501828E+02  1.501931E+02  1.501774E+02  1.501348E+02  1.500858E+02  1.500490E+02  1.500274E+02
 1.500012E+02  1.501192E+02  1.501658E+02  1.501917E+02  1.502032E+02  1.501889E+02  1.501455E+02  1.500931E+02  1.500528E+02  1.500290E+02
 1.500011E+02  1.501229E+02  1.501714E+02  1.501982E+02  1.502104E+02  1.501969E+02  1.501527E+02  1.500980E+02  1.500554E+02  1.500300E+02
 1.500011E+02  1.501229E+02  1.501714E+02  1.501982E+02  1.502104E+02  1.501969E+02  1.501527E+02  1.500981E+02  1.500554E+02  1.500300E+02
 1.500025E+02  1.501224E+02  1.501705E+02  1.501975E+02  1.502094E+02  1.501949E+02  1.501502E+02  1.500961E+02  1.500544E+02  1.500297E+02
 1.500062E+02  1.501208E+02  1.501678E+02  1.501947E+02  1.502059E+02  1.501895E+02  1.501442E+02  1.500917E+02  1.500521E+02  1.500287E+02
 1.500149E+02  1.501179E+02  1.501632E+02  1.501900E+02  1.501997E+02  1.501805E+02  1.501347E+02  1.500849E+02  1.500486E+02  1.500273E+02
 1.500774E+02  1.501320E+02  1.501669E+02  1.501897E+02  1.501949E+02  1.501706E+02  1.501239E+02  1.500773E+02  1.500447E+02  1.500257E+02
 1.501157E+02  1.501476E+02  1.501740E+02  1.501917E+02  1.501898E+02  1.501590E+02  1.501116E+02  1.500689E+02  1.500405E+02  1.500240E+02
 1.501411E+02  1.501619E+02  1.501818E+02  1.501931E+02  1.501815E+02  1.501439E+02  1.500975E+02  1.500602E+02  1.500364E+02  1.500224E+02
 1.501593E+02  1.501741E+02  1.501883E+02  1.501897E+02  1.501661E+02  1.501240E+02  1.500820E+02  1.500515E+02  1.500326E+02  1.500209E+02
 1.501726E+02  1.501827E+02  1.501875E+02  1.501737E+02  1.501395E+02  1.500991E+02  1.500660E+02  1.500437E+02  1.500294E+02  1.500198E+02
 1.501751E+02  1.501719E+02  1.501577E+02  1.501307E+02  1.500990E+02  1.500716E+02  1.500516E+02  1.500375E+02  1.500271E+02  1.500190E+02


SCALARS pH                   float 1
LOOKUP_TABLE default
 6.145658E+00  6.145664E+00  6.145636E+00  6.145535E+00  6.145332E+00  6.145045E+00  6.144743E+00  6.144501E+00  6.144347E+00  6.144264E+00
 6.145646E+00  6.145674E+00  6.145692E+00  6.145673E+00  6.145565E+00  6.145332E+00  6.145007E+00  6.144686E+00  6.144449E+00  6.144309E+00
 6.145610E+00  6.145664E+00  6.145694E+00  6.145704E+00  6.145653E+00  6.145483E+00  6.145186E+00  6.144838E+00  6.144547E+00  6.144358E+00
 6.145318E+00  6.145640E+00  6.145690E+00  6.145714E+00  6.145695E+00  6.145574E+00  6.145314E+00  6.144965E+00  6.144638E+00  6.144408E+00
 6.142119E+00  6.145501E+00  6.145680E+00  6.145718E+00  6.145718E+00  6.145632E+00  6.145407E+00  6.145068E+00  6.144721E+00  6.144458E+00
 6.116857E+00  6.144311E+00  6.145640E+00  6.145721E+00  6.145734E+00  6.145672E+00  6.145476E+00  6.145151E+00  6.144791E+00  6.144503E+00
 5.986692E+00  6.137236E+00  6.145420E+00  6.145724E+00  6.145750E+00  6.145703E+00  6.145529E+00  6.145215E+00  6.144849E+00  6.144541E+00
 5.986678E+00  6.135513E+00  6.145334E+00  6.145738E+00  6.145770E+00  6.145732E+00  6.145570E+00  6.145265E+00  6.144893E+00  6.144571E+00
 5.986678E+00  6.134708E+00  6.145284E+00  6.145750E+00  6.145786E+00  6.145753E+00  6.145600E+00  6.145299E+00  6.144924E+00  6.144592E+00
 5.986680E+00  6.134385E+00  6.145262E+00  6.145758E+00  6.145796E+00  6.145766E+00  6.145616E+00  6.145318E+00  6.144941E+00  6.144604E+00
 5.986676E+00  6.134380E+00  6.145259E+00  6.145756E+00  6.145794E+00  6.145765E+00  6.145616E+00  6.145318E+00  6.144942E+00  6.144604E+00
 5.986672E+00  6.134700E+00  6.145279E+00  6.145749E+00  6.145786E+00  6.145754E+00  6.145600E+00  6.145298E+00  6.144924E+00  6.144592E+00
 5.986672E+00  6.135503E+00  6.145329E+00  6.145738E+00  6.145773E+00  6.145735E+00  6.145571E+00  6.145263E+00  6.144891E+00  6.144570E+00
 5.986689E+00  6.137226E+00  6.145418E+00  6.145728E+00  6.145757E+00  6.145709E+00  6.145530E+00  6.145213E+00  6.144846E+00  6.144539E+00
 6.116865E+00  6.144312E+00  6.145647E+00  6.145733E+00  6.145747E+00  6.145681E+00  6.145479E+00  6.145149E+00  6.144789E+00  6.144501E+00
 6.142132E+00  6.145515E+00  6.145700E+00  6.145741E+00  6.145739E+00  6.145645E+00  6.145411E+00  6.145066E+00  6.144718E+00  6.144456E+00
 6.145341E+00  6.145669E+00  6.145722E+00  6.145747E+00  6.145722E+00  6.145588E+00  6.145317E+00  6.144962E+00  6.144635E+00  6.144406E+00
 6.145647E+00  6.145706E+00  6.145739E+00  6.145745E+00  6.145681E+00  6.145494E+00  6.145185E+00  6.144834E+00  6.144543E+00  6.144356E+00
 6.145695E+00  6.145727E+00  6.145742E+00  6.145710E+00  6.145584E+00  6.145334E+00  6.145001E+00  6.144680E+00  6.144445E+00  6.144307E+00
 6.145711E+00  6.145712E+00  6.145669E+00  6.145550E+00  6.145330E+00  6.145035E+00  6.144733E+00  6.144494E+00  6.144343E+00  6.144262E+00


SCALARS Total_H+             float 1
LOOKUP_TABLE default
-3.046975E-03 -3.046088E-03 -3.045423E-03 -3.045341E-03 -3.046058E-03 -3.047477E-03 -3.049184E-03 -3.050698E-03 -3.051771E-03 -3.052442E-03
-3.048047E-03 -3.046945E-03 -3.045780E-03 -3.044973E-03 -3.044981E-03 -3.045996E-03 -3.047759E-03 -3.049665E-03 -3.051188E-03 -3.052179E-03
-3.048809E-03 -3.047600E-03 -3.046276E-03 -3.045102E-03 -3.044604E-03 -3.045176E-03 -3.046759E-03 -3.048799E-03 -3.050621E-03 -3.051889E-03
-3.048539E-03 -3.048160E-03 -3.046694E-03 -3.045313E-03 -3.044453E-03 -3.044642E-03 -3.045994E-03 -3.048052E-03 -3.050079E-03 -3.051586E-03
-3.032257E-03 -3.048273E-03 -3.047031E-03 -3.045492E-03 -3.044376E-03 -3.044251E-03 -3.045383E-03 -3.047411E-03 -3.049579E-03 -3.051286E-03
-2.891687E-03 -3.042632E-03 -3.047165E-03 -3.045581E-03 -3.044281E-03 -3.043916E-03 -3.044866E-03 -3.046859E-03 -3.049132E-03 -3.051006E-03
-2.250290E-03 -3.003021E-03 -3.046148E-03 -3.045510E-03 -3.044100E-03 -3.043571E-03 -3.044397E-03 -3.046377E-03 -3.048745E-03 -3.050759E-03
-2.250214E-03 -2.992982E-03 -3.045356E-03 -3.045231E-03 -3.043801E-03 -3.043187E-03 -3.043952E-03 -3.045955E-03 -3.048419E-03 -3.050555E-03
-2.250139E-03 -2.988171E-03 -3.044793E-03 -3.044983E-03 -3.043542E-03 -3.042877E-03 -3.043607E-03 -3.045636E-03 -3.048177E-03 -3.050405E-03
-2.250114E-03 -2.986190E-03 -3.044473E-03 -3.044794E-03 -3.043342E-03 -3.042652E-03 -3.043376E-03 -3.045436E-03 -3.048032E-03 -3.050318E-03
-2.250157E-03 -2.986224E-03 -3.044497E-03 -3.044812E-03 -3.043353E-03 -3.042660E-03 -3.043381E-03 -3.045437E-03 -3.048030E-03 -3.050315E-03
-2.250248E-03 -2.988176E-03 -3.044715E-03 -3.044851E-03 -3.043382E-03 -3.042721E-03 -3.043488E-03 -3.045566E-03 -3.048142E-03 -3.050391E-03
-2.250381E-03 -2.992936E-03 -3.045154E-03 -3.044934E-03 -3.043459E-03 -3.042864E-03 -3.043713E-03 -3.045817E-03 -3.048355E-03 -3.050531E-03
-2.250497E-03 -3.002875E-03 -3.045780E-03 -3.045017E-03 -3.043558E-03 -3.043079E-03 -3.044046E-03 -3.046181E-03 -3.048656E-03 -3.050726E-03
-2.891494E-03 -3.042125E-03 -3.046487E-03 -3.044801E-03 -3.043482E-03 -3.043234E-03 -3.044405E-03 -3.046612E-03 -3.049023E-03 -3.050965E-03
-3.031545E-03 -3.047353E-03 -3.045982E-03 -3.044375E-03 -3.043304E-03 -3.043397E-03 -3.044842E-03 -3.047137E-03 -3.049462E-03 -3.051243E-03
-3.047339E-03 -3.046813E-03 -3.045253E-03 -3.043854E-03 -3.043148E-03 -3.043685E-03 -3.045435E-03 -3.047786E-03 -3.049969E-03 -3.051546E-03
-3.047144E-03 -3.045825E-03 -3.044451E-03 -3.043363E-03 -3.043186E-03 -3.044240E-03 -3.046261E-03 -3.048578E-03 -3.050533E-03 -3.051857E-03
-3.045939E-03 -3.044776E-03 -3.043676E-03 -3.043165E-03 -3.043689E-03 -3.045247E-03 -3.047404E-03 -3.049521E-03 -3.051132E-03 -3.052158E-03
-3.044592E-03 -3.043856E-03 -3.043547E-03 -3.043994E-03 -3.045259E-03 -3.047091E-03 -3.049030E-03 -3.050645E-03 -3.051753E-03 -3.052435E-03


SCALARS Total_SiO2(aq)       float 1
LOOKUP_TABLE default
 1.040344E-02  1.040083E-02  1.040012E-02  1.039911E-02  1.039786E-02  1.039669E-02  1.039574E-02  1.039493E-02  1.039423E-02  1.039363E-02
 1.042989E-02  1.040626E-02  1.040279E-02  1.040182E-02  1.040017E-02  1.039816E-02  1.039644E-02  1.039520E-02  1.039431E-02  1.039365E-02
 1.053887E-02  1.042750E-02  1.040667E-02  1.040382E-02  1.040227E-02  1.039989E-02  1.039748E-02  1.039568E-02  1.039449E-02  1.039371E-02
 1.083836E-02  1.049805E-02  1.041887E-02  1.040633E-02  1.040409E-02  1.040163E-02  1.039871E-02  1.039633E-02  1.039477E-02  1.039381E-02
 1.141809E-02  1.067047E-02  1.045258E-02  1.041173E-02  1.040593E-02  1.040329E-02  1.040002E-02  1.039709E-02  1.039512E-02  1.039395E-02
 1.223295E-02  1.098508E-02  1.052354E-02  1.042321E-02  1.040832E-02  1.040489E-02  1.040135E-02  1.039793E-02  1.039552E-02  1.039411E-02
 1.306838E-02  1.139595E-02  1.062770E-02  1.044126E-02  1.041153E-02  1.040648E-02  1.040264E-02  1.039877E-02  1.039594E-02  1.039428E-02
 1.306723E-02  1.150487E-02  1.068088E-02  1.045381E-02  1.041427E-02  1.040793E-02  1.040384E-02  1.039958E-02  1.039635E-02  1.039445E-02
 1.306656E-02  1.155342E-02  1.071197E-02  1.046245E-02  1.041633E-02  1.040903E-02  1.040477E-02  1.040021E-02  1.039669E-02  1.039459E-02
 1.306640E-02  1.157311E-02  1.072664E-02  1.046703E-02  1.041761E-02  1.040979E-02  1.040540E-02  1.040064E-02  1.039691E-02  1.039469E-02
 1.306665E-02  1.157317E-02  1.072664E-02  1.046702E-02  1.041760E-02  1.040979E-02  1.040540E-02  1.040064E-02  1.039691E-02  1.039469E-02
 1.306734E-02  1.155384E-02  1.071235E-02  1.046290E-02  1.041685E-02  1.040954E-02  1.040518E-02  1.040048E-02  1.039682E-02  1.039465E-02
 1.306854E-02  1.150565E-02  1.068167E-02  1.045477E-02  1.041534E-02  1.040895E-02  1.040465E-02  1.040008E-02  1.039662E-02  1.039457E-02
 1.307016E-02  1.139709E-02  1.062897E-02  1.044279E-02  1.041318E-02  1.040802E-02  1.040381E-02  1.039949E-02  1.039631E-02  1.039444E-02
 1.223482E-02  1.098683E-02  1.052556E-02  1.042551E-02  1.041069E-02  1.040699E-02  1.040287E-02  1.039882E-02  1.039596E-02  1.039429E-02
 1.142051E-02  1.067311E-02  1.045555E-02  1.041492E-02  1.040906E-02  1.040590E-02  1.040180E-02  1.039809E-02  1.039559E-02  1.039414E-02
 1.084174E-02  1.050175E-02  1.042287E-02  1.041046E-02  1.040789E-02  1.040458E-02  1.040058E-02  1.039732E-02  1.039522E-02  1.039399E-02
 1.054343E-02  1.043236E-02  1.041174E-02  1.040876E-02  1.040647E-02  1.040286E-02  1.039922E-02  1.039655E-02  1.039488E-02  1.039386E-02
 1.043573E-02  1.041228E-02  1.040874E-02  1.040712E-02  1.040419E-02  1.040071E-02  1.039781E-02  1.039585E-02  1.039459E-02  1.039376E-02