# vtk DataFile Version 2.0
PFLOTRAN output
ASCII
DATASET UNSTRUCTURED_GRID
POINTS          462 float
 0.000000E+00  0.000000E+00  0.000000E+00
 2.000000E+03  0.000000E+00  0.000000E+00
 4.000000E+03  0.000000E+00  0.000000E+00
 6.000000E+03  0.000000E+00  0.000000E+00
 8.000000E+03  0.000000E+00  0.000000E+00
 1.000000E+04  0.000000E+00  0.000000E+00
 1.200000E+04  0.000000E+00  0.000000E+00
 1.400000E+04  0.000000E+00  0.000000E+00
 1.600000E+04  0.000000E+00  0.000000E+00
 1.800000E+04  0.000000E+00  0.000000E+00
 2.000000E+04  0.000000E+00  0.000000E+00
 0.000000E+00  1.000000E+00  0.000000E+00
 2.000000E+03  1.000000E+00  0.000000E+00
 4.000000E+03  1.000000E+00  0.000000E+00
 6.000000E+03  1.000000E+00  0.000000E+00
 8.000000E+03  1.000000E+00  0.000000E+00
 1.000000E+04  1.000000E+00  0.000000E+00
 1.200000E+04  1.000000E+00  0.000000E+00
 1.400000E+04  1.000000E+00  0.000000E+00
 1.600000E+04  1.000000E+00  0.000000E+00
 1.800000E+04  1.000000E+00  0.000000E+00
 2.000000E+04  1.000000E+00  0.000000E+00
 0.000000E+00  0.000000E+00  5.000000E+00
 2.000000E+03  0.000000E+00  5.000000E+00
 4.000000E+03  0.000000E+00  5.000000E+00
 6.000000E+03  0.000000E+00  5.000000E+00
 8.000000E+03  0.000000E+00  5.000000E+00
 1.000000E+04  0.000000E+00  5.000000E+00
 1.200000E+04  0.000000E+00  5.000000E+00
 1.400000E+04  0.000000E+00  5.000000E+00
 1.600000E+04  0.000000E+00  5.000000E+00
 1.800000E+04  0.000000E+00  5.000000E+00
 2.000000E+04  0.000000E+00  5.000000E+00
 0.000000E+00  1.000000E+00  5.000000E+00
 2.000000E+03  1.000000E+00  5.000000E+00
 4.000000E+03  1.000000E+00  5.000000E+00
 6.000000E+03  1.000000E+00  5.000000E+00
 8.000000E+03  1.000000E+00  5.000000E+00
 1.000000E+04  1.000000E+00  5.000000E+00
 1.200000E+04  1.000000E+00  5.000000E+00
 1.400000E+04  1.000000E+00  5.000000E+00
 1.600000E+04  1.000000E+00  5.000000E+00
 1.800000E+04  1.000000E+00  5.000000E+00
 2.000000E+04  1.000000E+00  5.000000E+00
 0.000000E+00  0.000000E+00  1.000000E+01
 2.000000E+03  0.000000E+00  1.000000E+01
 4.000000E+03  0.000000E+00  1.000000E+01
 6.000000E+03  0.000000E+00  1.000000E+01
 8.000000E+03  0.000000E+00  1.000000E+01
 1.000000E+04  0.000000E+00  1.000000E+01
 1.200000E+04  0.000000E+00  1.000000E+01
 1.400000E+04  0.000000E+00  1.000000E+01
 1.600000E+04  0.000000E+00  1.000000E+01
 1.800000E+04  0.000000E+00  1.000000E+01
 2.000000E+04  0.000000E+00  1.000000E+01
 0.000000E+00  1.000000E+00  1.000000E+01
 2.000000E+03  1.000000E+00  1.000000E+01
 4.000000E+03  1.000000E+00  1.000000E+01
 6.000000E+03  1.000000E+00  1.000000E+01
 8.000000E+03  1.000000E+00  1.000000E+01
 1.000000E+04  1.000000E+00  1.000000E+01
 1.200000E+04  1.000000E+00  1.000000E+01
 1.400000E+04  1.000000E+00  1.000000E+01
 1.600000E+04  1.000000E+00  1.000000E+01
 1.800000E+04  1.000000E+00  1.000000E+01
 2.000000E+04  1.000000E+00  1.000000E+01
 0.000000E+00  0.000000E+00  1.500000E+01
 2.000000E+03  0.000000E+00  1.500000E+01
 4.000000E+03  0.000000E+00  1.500000E+01
 6.000000E+03  0.000000E+00  1.500000E+01
 8.000000E+03  0.000000E+00  1.500000E+01
 1.000000E+04  0.000000E+00  1.500000E+01
 1.200000E+04  0.000000E+00  1.500000E+01
 1.400000E+04  0.000000E+00  1.500000E+01
 1.600000E+04  0.000000E+00  1.500000E+01
 1.800000E+04  0.000000E+00  1.500000E+01
 2.000000E+04  0.000000E+00  1.500000E+01
 0.000000E+00  1.000000E+00  1.500000E+01
 2.000000E+03  1.000000E+00  1.500000E+01
 4.000000E+03  1.000000E+00  1.500000E+01
 6.000000E+03  1.000000E+00  1.500000E+01
 8.000000E+03  1.000000E+00  1.500000E+01
 1.000000E+04  1.000000E+00  1.500000E+01
 1.200000E+04  1.000000E+00  1.500000E+01
 1.400000E+04  1.000000E+00  1.500000E+01
 1.600000E+04  1.000000E+00  1.500000E+01
 1.800000E+04  1.000000E+00  1.500000E+01
 2.000000E+04  1.000000E+00  1.500000E+01
 0.000000E+00  0.000000E+00  2.000000E+01
 2.000000E+03  0.000000E+00  2.000000E+01
 4.000000E+03  0.000000E+00  2.000000E+01
 6.000000E+03  0.000000E+00  2.000000E+01
 8.000000E+03  0.000000E+00  2.000000E+01
 1.000000E+04  0.000000E+00  2.000000E+01
 1.200000E+04  0.000000E+00  2.000000E+01
 1.400000E+04  0.000000E+00  2.000000E+01
 1.600000E+04  0.000000E+00  2.000000E+01
 1.800000E+04  0.000000E+00  2.000000E+01
 2.000000E+04  0.000000E+00  2.000000E+01
 0.000000E+00  1.000000E+00  2.000000E+01
 2.000000E+03  1.000000E+00  2.000000E+01
 4.000000E+03  1.000000E+00  2.000000E+01
 6.000000E+03  1.000000E+00  2.000000E+01
 8.000000E+03  1.000000E+00  2.000000E+01
 1.000000E+04  1.000000E+00  2.000000E+01
 1.200000E+04  1.000000E+00  2.000000E+01
 1.400000E+04  1.000000E+00  2.000000E+01
 1.600000E+04  1.000000E+00  2.000000E+01
 1.800000E+04  1.000000E+00  2.000000E+01
 2.000000E+04  1.000000E+00  2.000000E+01
 0.000000E+00  0.000000E+00  2.500000E+01
 2.000000E+03  0.000000E+00  2.500000E+01
 4.000000E+03  0.000000E+00  2.500000E+01
 6.000000E+03  0.000000E+00  2.500000E+01
 8.000000E+03  0.000000E+00  2.500000E+01
 1.000000E+04  0.000000E+00  2.500000E+01
 1.200000E+04  0.000000E+00  2.500000E+01
 1.400000E+04  0.000000E+00  2.500000E+01
 1.600000E+04  0.000000E+00  2.500000E+01
 1.800000E+04  0.000000E+00  2.500000E+01
 2.000000E+04  0.000000E+00  2.500000E+01
 0.000000E+00  1.000000E+00  2.500000E+01
 2.000000E+03  1.000000E+00  2.500000E+01
 4.000000E+03  1.000000E+00  2.500000E+01
 6.000000E+03  1.000000E+00  2.500000E+01
 8.000000E+03  1.000000E+00  2.500000E+01
 1.000000E+04  1.000000E+00  2.500000E+01
 1.200000E+04  1.000000E+00  2.500000E+01
 1.400000E+04  1.000000E+00  2.500000E+01
 1.600000E+04  1.000000E+00  2.500000E+01
 1.800000E+04  1.000000E+00  2.500000E+01
 2.000000E+04  1.000000E+00  2.500000E+01
 0.000000E+00  0.000000E+00  3.000000E+01
 2.000000E+03  0.000000E+00  3.000000E+01
 4.000000E+03  0.000000E+00  3.000000E+01
 6.000000E+03  0.000000E+00  3.000000E+01
 8.000000E+03  0.000000E+00  3.000000E+01
 1.000000E+04  0.000000E+00  3.000000E+01
 1.200000E+04  0.000000E+00  3.000000E+01
 1.400000E+04  0.000000E+00  3.000000E+01
 1.600000E+04  0.000000E+00  3.000000E+01
 1.800000E+04  0.000000E+00  3.000000E+01
 2.000000E+04  0.000000E+00  3.000000E+01
 0.000000E+00  1.000000E+00  3.000000E+01
 2.000000E+03  1.000000E+00  3.000000E+01
 4.000000E+03  1.000000E+00  3.000000E+01
 6.000000E+03  1.000000E+00  3.000000E+01
 8.000000E+03  1.000000E+00  3.000000E+01
 1.000000E+04  1.000000E+00  3.000000E+01
 1.200000E+04  1.000000E+00  3.000000E+01
 1.400000E+04  1.000000E+00  3.000000E+01
 1.600000E+04  1.000000E+00  3.000000E+01
 1.800000E+04  1.000000E+00  3.000000E+01
 2.000000E+04  1.000000E+00  3.000000E+01
 0.000000E+00  0.000000E+00  3.500000E+01
 2.000000E+03  0.000000E+00  3.500000E+01
 4.000000E+03  0.000000E+00  3.500000E+01
 6.000000E+03  0.000000E+00  3.500000E+01
 8.000000E+03  0.000000E+00  3.500000E+01
 1.000000E+04  0.000000E+00  3.500000E+01
 1.200000E+04  0.000000E+00  3.500000E+01
 1.400000E+04  0.000000E+00  3.500000E+01
 1.600000E+04  0.000000E+00  3.500000E+01
 1.800000E+04  0.000000E+00  3.500000E+01
 2.000000E+04  0.000000E+00  3.500000E+01
 0.000000E+00  1.000000E+00  3.500000E+01
 2.000000E+03  1.000000E+00  3.500000E+01
 4.000000E+03  1.000000E+00  3.500000E+01
 6.000000E+03  1.000000E+00  3.500000E+01
 8.000000E+03  1.000000E+00  3.500000E+01
 1.000000E+04  1.000000E+00  3.500000E+01
 1.200000E+04  1.000000E+00  3.500000E+01
 1.400000E+04  1.000000E+00  3.500000E+01
 1.600000E+04  1.000000E+00  3.500000E+01
 1.800000E+04  1.000000E+00  3.500000E+01
 2.000000E+04  1.000000E+00  3.500000E+01
 0.000000E+00  0.000000E+00  4.000000E+01
 2.000000E+03  0.000000E+00  4.000000E+01
 4.000000E+03  0.000000E+00  4.000000E+01
 6.000000E+03  0.000000E+00  4.000000E+01
 8.000000E+03  0.000000E+00  4.000000E+01
 1.000000E+04  0.000000E+00  4.000000E+01
 1.200000E+04  0.000000E+00  4.000000E+01
 1.400000E+04  0.000000E+00  4.000000E+01
 1.600000E+04  0.000000E+00  4.000000E+01
 1.800000E+04  0.000000E+00  4.000000E+01
 2.000000E+04  0.000000E+00  4.000000E+01
 0.000000E+00  1.000000E+00  4.000000E+01
 2.000000E+03  1.000000E+00  4.000000E+01
 4.000000E+03  1.000000E+00  4.000000E+01
 6.000000E+03  1.000000E+00  4.000000E+01
 8.000000E+03  1.000000E+00  4.000000E+01
 1.000000E+04  1.000000E+00  4.000000E+01
 1.200000E+04  1.000000E+00  4.000000E+01
 1.400000E+04  1.000000E+00  4.000000E+01
 1.600000E+04  1.000000E+00  4.000000E+01
 1.800000E+04  1.000000E+00  4.000000E+01
 2.000000E+04  1.000000E+00  4.000000E+01
 0.000000E+00  0.000000E+00  4.500000E+01
 2.000000E+03  0.000000E+00  4.500000E+01
 4.000000E+03  0.000000E+00  4.500000E+01
 6.000000E+03  0.000000E+00  4.500000E+01
 8.000000E+03  0.000000E+00  4.500000E+01
 1.000000E+04  0.000000E+00  4.500000E+01
 1.200000E+04  0.000000E+00  4.500000E+01
 1.400000E+04  0.000000E+00  4.500000E+01
 1.600000E+04  0.000000E+00  4.500000E+01
 1.800000E+04  0.000000E+00  4.500000E+01
 2.000000E+04  0.000000E+00  4.500000E+01
 0.000000E+00  1.000000E+00  4.500000E+01
 2.000000E+03  1.000000E+00  4.500000E+01
 4.000000E+03  1.000000E+00  4.500000E+01
 6.000000E+03  1.000000E+00  4.500000E+01
 8.000000E+03  1.000000E+00  4.500000E+01
 1.000000E+04  1.000000E+00  4.500000E+01
 1.200000E+04  1.000000E+00  4.500000E+01
 1.400000E+04  1.000000E+00  4.500000E+01
 1.600000E+04  1.000000E+00  4.500000E+01
 1.800000E+04  1.000000E+00  4.500000E+01
 2.000000E+04  1.000000E+00  4.500000E+01
 0.000000E+00  0.000000E+00  5.000000E+01
 2.000000E+03  0.000000E+00  5.000000E+01
 4.000000E+03  0.000000E+00  5.000000E+01
 6.000000E+03  0.000000E+00  5.000000E+01
 8.000000E+03  0.000000E+00  5.000000E+01
 1.000000E+04  0.000000E+00  5.000000E+01
 1.200000E+04  0.000000E+00  5.000000E+01
 1.400000E+04  0.000000E+00  5.000000E+01
 1.600000E+04  0.000000E+00  5.000000E+01
 1.800000E+04  0.000000E+00  5.000000E+01
 2.000000E+04  0.000000E+00  5.000000E+01
 0.000000E+00  1.000000E+00  5.000000E+01
 2.000000E+03  1.000000E+00  5.000000E+01
 4.000000E+03  1.000000E+00  5.000000E+01
 6.000000E+03  1.000000E+00  5.000000E+01
[...]
CELL_DATA      200
SCALARS Porosity             float 1
LOOKUP_TABLE default
 4.377100E-01  4.377100E-01  4.377100E-01  4.377100E-01  4.377100E-01  4.377100E-01  4.377100E-01  4.377099E-01  4.377099E-01  4.377099E-01
 4.377100E-01  4.377100E-01  4.377100E-01  4.377100E-01  4.377100E-01  4.377100E-01  4.377100E-01  4.377100E-01  4.377099E-01  4.377099E-01
 4.377100E-01  4.377100E-01  4.377100E-01  4.377100E-01  4.377100E-01  4.377100E-01  4.377100E-01  4.377100E-01  4.377100E-01  4.377099E-01
 4.377100E-01  4.377100E-01  4.377100E-01  4.377100E-01  4.377100E-01  4.377100E-01  4.377100E-01  4.377100E-01  4.377100E-01  4.377100E-01
 4.377100E-01  4.377100E-01  4.377100E-01  4.377100E-01  4.377100E-01  4.377100E-01  4.377100E-01  4.377100E-01  4.377100E-01  4.377100E-01
 4.377100E-01  4.377100E-01  4.377100E-01  4.377100E-01  4.377100E-01  4.377100E-01  4.377100E-01  4.377100E-01  4.377100E-01  4.377100E-01
 4.377098E-01  4.377100E-01  4.377100E-01  4.377100E-01  4.377100E-01  4.377100E-01  4.377100E-01  4.377100E-01  4.377100E-01  4.377100E-01
 4.377098E-01  4.377100E-01  4.377100E-01  4.377100E-01  4.377100E-01  4.377100E-01  4.377100E-01  4.377100E-01  4.377100E-01  4.377100E-01
 4.377098E-01  4.377100E-01  4.377100E-01  4.377100E-01  4.377100E-01  4.377100E-01  4.377100E-01  4.377100E-01  4.377100E-01  4.377100E-01
 4.377098E-01  4.377100E-01  4.377100E-01  4.377100E-01  4.377100E-01  4.377100E-01  4.377100E-01  4.377100E-01  4.377100E-01  4.377100E-01
 4.377098E-01  4.377100E-01  4.377100E-01  4.377100E-01  4.377100E-01  4.377100E-01  4.377100E-01  4.377100E-01  4.377100E-01  4.377100E-01
 4.377098E-01  4.377100E-01  4.377100E-01  4.377100E-01  4.377100E-01  4.377100E-01  4.377100E-01  4.377100E-01  4.377100E-01  4.377100E-01
 4.377098E-01  4.377100E-01  4.377100E-01  4.377100E-01  4.377100E-01  4.377100E-01  4.377100E-01  4.377100E-01  4.377100E-01  4.377100E-01
 4.377098E-01  4.377100E-01  4.377100E-01  4.377100E-01  4.377100E-01  4.377100E-01  4.377100E-01  4.377100E-01  4.377100E-01  4.377100E-01
 4.377100E-01  4.377100E-01  4.377100E-01  4.377100E-01  4.377100E-01  4.377100E-01  4.377100E-01  4.377100E-01  4.377100E-01  4.377100E-01
 4.377100E-01  4.377100E-01  4.377100E-01  4.377100E-01  4.377100E-01  4.377100E-01  4.377100E-01  4.377100E-01  4.377100E-01  4.377100E-01
 4.377100E-01  4.377100E-01  4.377100E-01  4.377100E-01  4.377100E-01  4.377100E-01  4.377100E-01  4.377100E-01  4.377100E-01  4.377100E-01
 4.377100E-01  4.377100E-01  4.377100E-01  4.377100E-01  4.377100E-01  4.377100E-01  4.377100E-01  4.377100E-01  4.377100E-01  4.377100E-01
 4.377100E-01  4.377100E-01  4.377100E-01  4.377100E-01  4.377100E-01  4.377100E-01  4.377100E-01  4.377100E-01  4.377100E-01  4.377100E-01
 4.377100E-01  4.377100E-01  4.377100E-01  4.377100E-01  4.377100E-01  4.377100E-01  4.377100E-01  4.377100E-01  4.377100E-01  4.377100E-01


SCALARS Permeability         float 1
LOOKUP_TABLE default
 8.829804E-13  8.829804E-13  8.829803E-13  8.829803E-13  8.829803E-13  8.829803E-13  8.829803E-13  8.829803E-13  8.829803E-13  8.829803E-13
 8.829804E-13  8.829804E-13  8.829803E-13  8.829803E-13  8.829803E-13  8.829803E-13  8.829803E-13  8.829803E-13  8.829803E-13  8.829803E-13
 8.829805E-13  8.829804E-13  8.829803E-13  8.829803E-13  8.829803E-13  8.829803E-13  8.829803E-13  8.829803E-13  8.829803E-13  8.829803E-13
 8.829805E-13  8.829804E-13  8.829803E-13  8.829803E-13  8.829803E-13  8.829803E-13  8.829803E-13  8.829803E-13  8.829803E-13  8.829803E-13
 8.829805E-13  8.829804E-13  8.829803E-13  8.829803E-13  8.829803E-13  8.829803E-13  8.829803E-13  8.829803E-13  8.829803E-13  8.829803E-13
 8.829805E-13  8.829804E-13  8.829803E-13  8.829803E-13  8.829803E-13  8.829803E-13  8.829803E-13  8.829803E-13  8.829803E-13  8.829803E-13
 8.829796E-13  8.829804E-13  8.829804E-13  8.829803E-13  8.829803E-13  8.829803E-13  8.829803E-13  8.829803E-13  8.829803E-13  8.829803E-13
 8.829796E-13  8.829804E-13  8.829804E-13  8.829803E-13  8.829803E-13  8.829803E-13  8.829803E-13  8.829803E-13  8.829803E-13  8.829803E-13
 8.829796E-13  8.829804E-13  8.829804E-13  8.829803E-13  8.829803E-13  8.829803E-13  8.829803E-13  8.829803E-13  8.829803E-13  8.829803E-13
 8.829796E-13  8.829804E-13  8.829804E-13  8.829803E-13  8.829803E-13  8.829803E-13  8.829803E-13  8.829803E-13  8.829803E-13  8.829803E-13
 8.829796E-13  8.829804E-13  8.829804E-13  8.829803E-13  8.829803E-13  8.829803E-13  8.829803E-13  8.829803E-13  8.829803E-13  8.829803E-13
 8.829796E-13  8.829804E-13  8.829804E-13  8.829803E-13  8.829803E-13  8.829803E-13  8.829803E-13  8.829803E-13  8.829803E-13  8.829803E-13
 8.829796E-13  8.829804E-13  8.829804E-13  8.829803E-13  8.829803E-13  8.829803E-13  8.829803E-13  8.829803E-13  8.829803E-13  8.829803E-13
 8.829797E-13  8.829804E-13  8.829804E-13  8.829804E-13  8.829803E-13  8.829803E-13  8.829803E-13  8.829803E-13  8.829803E-13  8.829803E-13
 8.829805E-13  8.829804E-13  8.829804E-13  8.829804E-13  8.829803E-13  8.829803E-13  8.829803E-13  8.829803E-13  8.829803E-13  8.829803E-13
 8.829805E-13  8.829804E-13  8.829804E-13  8.829804E-13  8.829803E-13  8.829803E-13  8.829803E-13  8.829803E-13  8.829803E-13  8.829803E-13
 8.829805E-13  8.829804E-13  8.829804E-13  8.829804E-13  8.829803E-13  8.829803E-13  8.829803E-13  8.829803E-13  8.829803E-13  8.829803E-13
 8.829805E-13  8.829804E-13  8.829804E-13  8.829804E-13  8.829803E-13  8.829803E-13  8.829803E-13  8.829803E-13  8.829803E-13  8.829803E-13
 8.829805E-13  8.829804E-13  8.829804E-13  8.829804E-13  8.829804E-13  8.829803E-13  8.829803E-13  8.829803E-13  8.829803E-13  8.829803E-13
 8.829805E-13  8.829804E-13  8.829804E-13  8.829804E-13  8.829804E-13  8.829803E-13  8.829803E-13  8.829803E-13  8.829803E-13  8.829803E-13


SCALARS Liquid_Pressure      float 1
LOOKUP_TABLE default
 8.296576E+06  7.926839E+06  7.757849E+06  7.660255E+06  7.599435E+06  7.559837E+06  7.532720E+06  7.512801E+06  7.496950E+06  7.483445E+06
 8.251409E+06  7.881676E+06  7.712691E+06  7.615100E+06  7.554281E+06  7.514684E+06  7.487568E+06  7.467649E+06  7.451798E+06  7.438294E+06
 8.206248E+06  7.836515E+06  7.667534E+06  7.569945E+06  7.509128E+06  7.469532E+06  7.442416E+06  7.422499E+06  7.406648E+06  7.393144E+06
 8.161093E+06  7.791355E+06  7.622379E+06  7.524792E+06  7.463977E+06  7.424381E+06  7.397266E+06  7.377349E+06  7.361499E+06  7.347995E+06
 8.115945E+06  7.746197E+06  7.577224E+06  7.479640E+06  7.418826E+06  7.379232E+06  7.352118E+06  7.332201E+06  7.316351E+06  7.302848E+06
 8.070802E+06  7.701039E+06  7.532071E+06  7.434489E+06  7.373677E+06  7.334084E+06  7.306970E+06  7.287054E+06  7.271205E+06  7.257702E+06
 8.025665E+06  7.655883E+06  7.486919E+06  7.389340E+06  7.328529E+06  7.288937E+06  7.261824E+06  7.241908E+06  7.226059E+06  7.212557E+06
 7.980522E+06  7.610728E+06  7.441769E+06  7.344192E+06  7.283383E+06  7.243791E+06  7.216679E+06  7.196764E+06  7.180915E+06  7.167413E+06
 7.935373E+06  7.565575E+06  7.396619E+06  7.299045E+06  7.238237E+06  7.198647E+06  7.171535E+06  7.151621E+06  7.135772E+06  7.122271E+06
 7.890219E+06  7.520422E+06  7.351471E+06  7.253899E+06  7.193093E+06  7.153504E+06  7.126393E+06  7.106479E+06  7.090631E+06  7.077130E+06
 7.845058E+06  7.475271E+06  7.306324E+06  7.208755E+06  7.147950E+06  7.108362E+06  7.081252E+06  7.061338E+06  7.045491E+06  7.031990E+06
 7.799892E+06  7.430121E+06  7.261179E+06  7.163612E+06  7.102809E+06  7.063221E+06  7.036112E+06  7.016199E+06  7.000352E+06  6.986851E+06
 7.754720E+06  7.384973E+06  7.216034E+06  7.118470E+06  7.057669E+06  7.018082E+06  6.990973E+06  6.971061E+06  6.955214E+06  6.941714E+06
 7.709542E+06  7.339825E+06  7.170891E+06  7.073329E+06  7.012530E+06  6.972944E+06  6.945836E+06  6.925924E+06  6.910078E+06  6.896578E+06
 7.664358E+06  7.294679E+06  7.125750E+06  7.028190E+06  6.967392E+06  6.927807E+06  6.900700E+06  6.880788E+06  6.864942E+06  6.851443E+06
 7.619180E+06  7.249535E+06  7.080609E+06  6.983052E+06  6.922255E+06  6.882672E+06  6.855565E+06  6.835654E+06  6.819809E+06  6.806309E+06
 7.574008E+06  7.204391E+06  7.035470E+06  6.937915E+06  6.877120E+06  6.837537E+06  6.810432E+06  6.790521E+06  6.774676E+06  6.761177E+06
 7.528842E+06  7.159249E+06  6.990332E+06  6.892780E+06  6.831986E+06  6.792404E+06  6.765299E+06  6.745389E+06  6.729544E+06  6.716046E+06
 7.483682E+06  7.114108E+06  6.945195E+06  6.847646E+06  6.786853E+06  6.747273E+06  6.720168E+06  6.700259E+06  6.684414E+06  6.670916E+06
 7.438529E+06  7.068968E+06  6.900060E+06  6.802513E+06  6.741722E+06  6.702142E+06  6.675039E+06  6.655129E+06  6.639285E+06  6.625788E+06


SCALARS Temperature          float 1
LOOKUP_TABLE default
 1.500466E+02  1.500248E+02  1.500147E+02  1.500090E+02  1.500054E+02  1.500030E+02  1.500014E+02  1.500002E+02  1.499993E+02  1.499985E+02
 1.500466E+02  1.500248E+02  1.500147E+02  1.500090E+02  1.500054E+02  1.500030E+02  1.500014E+02  1.500002E+02  1.499993E+02  1.499985E+02
 1.500466E+02  1.500248E+02  1.500148E+02  1.500090E+02  1.500054E+02  1.500030E+02  1.500014E+02  1.500002E+02  1.499993E+02  1.499985E+02
 1.500466E+02  1.500248E+02  1.500148E+02  1.500090E+02  1.500054E+02  1.500030E+02  1.500014E+02  1.500002E+02  1.499993E+02  1.499985E+02
 1.500466E+02  1.500248E+02  1.500148E+02  1.500090E+02  1.500054E+02  1.500030E+02  1.500014E+02  1.500002E+02  1.499993E+02  1.499985E+02
 1.500465E+02  1.500248E+02  1.500148E+02  1.500090E+02  1.500054E+02  1.500030E+02  1.500014E+02  1.500002E+02  1.499993E+02  1.499985E+02
 1.500464E+02  1.500248E+02  1.500148E+02  1.500090E+02  1.500054E+02  1.500030E+02  1.500014E+02  1.500002E+02  1.499993E+02  1.499985E+02
 1.500464E+02  1.500248E+02  1.500148E+02  1.500090E+02  1.500054E+02  1.500030E+02  1.500014E+02  1.500002E+02  1.499993E+02  1.499985E+02
 1.500464E+02  1.500248E+02  1.500148E+02  1.500090E+02  1.500054E+02  1.500030E+02  1.500014E+02  1.500002E+02  1.499993E+02  1.499985E+02
 1.500465E+02  1.500248E+02  1.500148E+02  1.500090E+02  1.500054E+02  1.500030E+02  1.500014E+02  1.500002E+02  1.499993E+02  1.499985E+02
 1.500465E+02  1.500248E+02  1.500148E+02  1.500090E+02  1.500054E+02  1.500030E+02  1.500014E+02  1.500002E+02  1.499993E+02  1.499985E+02
 1.500465E+02  1.500248E+02  1.500148E+02  1.500090E+02  1.500054E+02  1.500030E+02  1.500014E+02  1.500002E+02  1.499993E+02  1.499985E+02
 1.500465E+02  1.500248E+02  1.500148E+02  1.500090E+02  1.500054E+02  1.500030E+02  1.500014E+02  1.500002E+02  1.499993E+02  1.499985E+02
 1.500465E+02  1.500248E+02  1.500148E+02  1.500090E+02  1.500054E+02  1.500030E+02  1.500014E+02  1.500002E+02  1.499993E+02  1.499985E+02
 1.500467E+02  1.500248E+02  1.500148E+02  1.500090E+02  1.500054E+02  1.500030E+02  1.500014E+02  1.500002E+02  1.499993E+02  1.499985E+02
 1.500467E+02  1.500248E+02  1.500148E+02  1.500090E+02  1.500054E+02  1.500030E+02  1.500014E+02  1.500002E+02  1.499993E+02  1.499985E+02
 1.500467E+02  1.500248E+02  1.500148E+02  1.500090E+02  1.500054E+02  1.500030E+02  1.500014E+02  1.500002E+02  1.499993E+02  1.499985E+02
 1.500467E+02  1.500248E+02  1.500148E+02  1.500090E+02  1.500054E+02  1.500030E+02  1.500014E+02  1.500002E+02  1.499993E+02  1.499985E+02
 1.500467E+02  1.500248E+02  1.500148E+02  1.500090E+02  1.500054E+02  1.500030E+02  1.500014E+02  1.500002E+02  1.499993E+02  1.499985E+02
 1.500467E+02  1.500248E+02  1.500148E+02  1.500090E+02  1.500054E+02  1.500030E+02  1.500014E+02  1.500002E+02  1.499993E+02  1.499985E+02


SCALARS pH                   float 1
LOOKUP_TABLE default
 6.144397E+00  6.144365E+00  6.144350E+00  6.144341E+00  6.144336E+00  6.144333E+00  6.144330E+00  6.144328E+00  6.144327E+00  6.144326E+00
 6.144397E+00  6.144365E+00  6.144350E+00  6.144341E+00  6.144336E+00  6.144333E+00  6.144330E+00  6.144328E+00  6.144327E+00  6.144326E+00
 6.144397E+00  6.144365E+00  6.144350E+00  6.144342E+00  6.144336E+00  6.144333E+00  6.144330E+00  6.144328E+00  6.144327E+00  6.144326E+00
 6.144397E+00  6.144365E+00  6.144350E+00  6.144342E+00  6.144336E+00  6.144333E+00  6.144330E+00  6.144329E+00  6.144327E+00  6.144326E+00
 6.144397E+00  6.144365E+00  6.144350E+00  6.144342E+00  6.144336E+00  6.144333E+00  6.144330E+00  6.144329E+00  6.144327E+00  6.144326E+00
 6.144397E+00  6.144365E+00  6.144350E+00  6.144342E+00  6.144336E+00  6.144333E+00  6.144330E+00  6.144329E+00  6.144327E+00  6.144326E+00
 6.144403E+00  6.144365E+00  6.144350E+00  6.144342E+00  6.144336E+00  6.144333E+00  6.144330E+00  6.144329E+00  6.144327E+00  6.144326E+00
 6.144403E+00  6.144365E+00  6.144350E+00  6.144342E+00  6.144336E+00  6.144333E+00  6.144330E+00  6.144329E+00  6.144327E+00  6.144326E+00
 6.144403E+00  6.144365E+00  6.144350E+00  6.144342E+00  6.144336E+00  6.144333E+00  6.144330E+00  6.144329E+00  6.144327E+00  6.144326E+00
 6.144403E+00  6.144365E+00  6.144350E+00  6.144342E+00  6.144336E+00  6.144333E+00  6.144330E+00  6.144329E+00  6.144327E+00  6.144326E+00
 6.144403E+00  6.144365E+00  6.144350E+00  6.144342E+00  6.144336E+00  6.144333E+00  6.144330E+00  6.144329E+00  6.144327E+00  6.144326E+00
 6.144403E+00  6.144365E+00  6.144350E+00  6.144342E+00  6.144336E+00  6.144333E+00  6.144330E+00  6.144329E+00  6.144327E+00  6.144326E+00
 6.144403E+00  6.144365E+00  6.144350E+00  6.144342E+00  6.144336E+00  6.144333E+00  6.144330E+00  6.144329E+00  6.144327E+00  6.144326E+00
 6.144403E+00  6.144365E+00  6.144350E+00  6.144342E+00  6.144336E+00  6.144333E+00  6.144330E+00  6.144329E+00  6.144327E+00  6.144326E+00
 6.144398E+00  6.144365E+00  6.144350E+00  6.144342E+00  6.144336E+00  6.144333E+00  6.144330E+00  6.144329E+00  6.144327E+00  6.144326E+00
 6.144398E+00  6.144365E+00  6.144350E+00  6.144342E+00  6.144336E+00  6.144333E+00  6.144330E+00  6.144329E+00  6.144327E+00  6.144326E+00
 6.144398E+00  6.144365E+00  6.144350E+00  6.144342E+00  6.144336E+00  6.144333E+00  6.144330E+00  6.144329E+00  6.144327E+00  6.144326E+00
 6.144398E+00  6.144365E+00  6.144350E+00  6.144342E+00  6.144336E+00  6.144333E+00  6.144330E+00  6.144329E+00  6.144327E+00  6.144326E+00
 6.144398E+00  6.144365E+00  6.144350E+00  6.144342E+00  6.144336E+00  6.144333E+00  6.144330E+00  6.144329E+00  6.144327E+00  6.144326E+00
 6.144398E+00  6.144365E+00  6.144350E+00  6.144342E+00  6.144336E+00  6.144333E+00  6.144330E+00  6.144329E+00  6.144327E+00  6.144326E+00


SCALARS Total_H+             float 1
LOOKUP_TABLE default
-3.042377E-03 -3.043129E-03 -3.043477E-03 -3.043678E-03 -3.043805E-03 -3.043887E-03 -3.043943E-03 -3.043985E-03 -3.044017E-03 -3.044044E-03
-3.042377E-03 -3.043129E-03 -3.043476E-03 -3.043678E-03 -3.043804E-03 -3.043887E-03 -3.043943E-03 -3.043984E-03 -3.044017E-03 -3.044044E-03
-3.042377E-03 -3.043128E-03 -3.043476E-03 -3.043677E-03 -3.043804E-03 -3.043886E-03 -3.043942E-03 -3.043984E-03 -3.044016E-03 -3.044043E-03
-3.042377E-03 -3.043127E-03 -3.043475E-03 -3.043677E-03 -3.043803E-03 -3.043886E-03 -3.043942E-03 -3.043983E-03 -3.044016E-03 -3.044043E-03
-3.042376E-03 -3.043127E-03 -3.043475E-03 -3.043676E-03 -3.043803E-03 -3.043885E-03 -3.043941E-03 -3.043983E-03 -3.044015E-03 -3.044042E-03
-3.042376E-03 -3.043126E-03 -3.043474E-03 -3.043676E-03 -3.043802E-03 -3.043885E-03 -3.043941E-03 -3.043982E-03 -3.044015E-03 -3.044042E-03
-3.042369E-03 -3.043126E-03 -3.043473E-03 -3.043675E-03 -3.043802E-03 -3.043884E-03 -3.043940E-03 -3.043982E-03 -3.044014E-03 -3.044041E-03
-3.042368E-03 -3.043125E-03 -3.043473E-03 -3.043675E-03 -3.043801E-03 -3.043884E-03 -3.043940E-03 -3.043981E-03 -3.044014E-03 -3.044041E-03
-3.042367E-03 -3.043124E-03 -3.043472E-03 -3.043674E-03 -3.043801E-03 -3.043883E-03 -3.043939E-03 -3.043981E-03 -3.044013E-03 -3.044040E-03
-3.042366E-03 -3.043124E-03 -3.043472E-03 -3.043674E-03 -3.043800E-03 -3.043882E-03 -3.043939E-03 -3.043980E-03 -3.044013E-03 -3.044040E-03
-3.042366E-03 -3.043123E-03 -3.043471E-03 -3.043673E-03 -3.043799E-03 -3.043882E-03 -3.043938E-03 -3.043980E-03 -3.044012E-03 -3.044039E-03
-3.042365E-03 -3.043123E-03 -3.043471E-03 -3.043673E-03 -3.043799E-03 -3.043881E-03 -3.043938E-03 -3.043979E-03 -3.044012E-03 -3.044039E-03
-3.042364E-03 -3.043122E-03 -3.043470E-03 -3.043672E-03 -3.043798E-03 -3.043881E-03 -3.043937E-03 -3.043979E-03 -3.044011E-03 -3.044039E-03
-3.042363E-03 -3.043121E-03 -3.043470E-03 -3.043672E-03 -3.043798E-03 -3.043880E-03 -3.043937E-03 -3.043978E-03 -3.044011E-03 -3.044038E-03
-3.042365E-03 -3.043121E-03 -3.043469E-03 -3.043671E-03 -3.043797E-03 -3.043880E-03 -3.043936E-03 -3.043978E-03 -3.044010E-03 -3.044038E-03
-3.042365E-03 -3.043120E-03 -3.043468E-03 -3.043670E-03 -3.043797E-03 -3.043879E-03 -3.043936E-03 -3.043977E-03 -3.044010E-03 -3.044037E-03
-3.042364E-03 -3.043120E-03 -3.043468E-03 -3.043670E-03 -3.043796E-03 -3.043879E-03 -3.043935E-03 -3.043977E-03 -3.044009E-03 -3.044037E-03
-3.042364E-03 -3.043119E-03 -3.043467E-03 -3.043669E-03 -3.043796E-03 -3.043878E-03 -3.043935E-03 -3.043976E-03 -3.044009E-03 -3.044036E-03
-3.042364E-03 -3.043118E-03 -3.043467E-03 -3.043669E-03 -3.043795E-03 -3.043878E-03 -3.043934E-03 -3.043976E-03 -3.044008E-03 -3.044036E-03
-3.042363E-03 -3.043118E-03 -3.043466E-03 -3.043668E-03 -3.043795E-03 -3.043877E-03 -3.043934E-03 -3.043975E-03 -3.044008E-03 -3.044035E-03


SCALARS Total_SiO2(aq)       float 1
LOOKUP_TABLE default
 1.039605E-02  1.039417E-02  1.039331E-02  1.039282E-02  1.039251E-02  1.039231E-02  1.039217E-02  1.039207E-02  1.039199E-02  1.039192E-02
 1.039605E-02  1.039417E-02  1.039331E-02  1.039282E-02  1.039251E-02  1.039231E-02  1.039217E-02  1.039207E-02  1.039199E-02  1.039192E-02
 1.039605E-02  1.039417E-02  1.039331E-02  1.039282E-02  1.039251E-02  1.039231E-02  1.039217E-02  1.039207E-02  1.039199E-02  1.039192E-02
 1.039605E-02  1.039418E-02  1.039331E-02  1.039282E-02  1.039251E-02  1.039231E-02  1.039217E-02  1.039207E-02  1.039199E-02  1.039192E-02
 1.039605E-02  1.039418E-02  1.039331E-02  1.039282E-02  1.039251E-02  1.039231E-02  1.039217E-02  1.039207E-02  1.039199E-02  1.039192E-02
 1.039605E-02  1.039418E-02  1.039331E-02  1.039282E-02  1.039251E-02  1.039231E-02  1.039217E-02  1.039207E-02  1.039199E-02  1.039192E-02
 1.039626E-02  1.039418E-02  1.039331E-02  1.039282E-02  1.039251E-02  1.039231E-02  1.039217E-02  1.039207E-02  1.039199E-02  1.039192E-02
 1.039626E-02  1.039418E-02  1.039331E-02  1.039282E-02  1.039251E-02  1.039231E-02  1.039217E-02  1.039207E-02  1.039199E-02  1.039192E-02
 1.039627E-02  1.039418E-02  1.039332E-02  1.039282E-02  1.039251E-02  1.039231E-02  1.039217E-02  1.039207E-02  1.039199E-02  1.039192E-02
 1.039627E-02  1.039418E-02  1.039332E-02  1.039282E-02  1.039251E-02  1.039231E-02  1.039217E-02  1.039207E-02  1.039199E-02  1.039192E-02
 1.039627E-02  1.039418E-02  1.039332E-02  1.039282E-02  1.039251E-02  1.039231E-02  1.039217E-02  1.039207E-02  1.039199E-02  1.039192E-02
 1.039627E-02  1.039418E-02  1.039332E-02  1.039282E-02  1.039251E-02  1.039231E-02  1.039217E-02  1.039207E-02  1.039199E-02  1.039192E-02
 1.039627E-02  1.039418E-02  1.039332E-02  1.039282E-02  1.039251E-02  1.039231E-02  1.039217E-02  1.039207E-02  1.039199E-02  1.039192E-02
 1.039628E-02  1.039418E-02  1.039332E-02  1.039282E-02  1.039251E-02  1.039231E-02  1.039217E-02  1.039207E-02  1.039199E-02  1.039192E-02
 1.039606E-02  1.039418E-02  1.039332E-02  1.039282E-02  1.039251E-02  1.039231E-02  1.039217E-02  1.039207E-02  1.039199E-02  1.039192E-02
 1.039606E-02  1.039418E-02  1.039332E-02  1.039282E-02  1.039251E-02  1.039231E-02  1.039217E-02  1.039207E-02  1.039199E-02  1.039192E-02
 1.039606E-02  1.039418E-02  1.039332E-02  1.039282E-02  1.039251E-02  1.039231E-02  1.039217E-02  1.039207E-02  1.039199E-02  1.039192E-02
 1.039606E-02  1.039418E-02  1.039332E-02  1.039282E-02  1.039251E-02  1.039231E-02  1.039217E-02  1.039207E-02  1.039199E-02  1.039192E-02
 1.039606E-02  1.039418E-02  1.039332E-02  1.039282E-02  1.039251E-02  1.039231E-02  1.039217E-02  1.039207E-02  1.039199E-02  1.039192E-02