# vtk DataFile Version 2.0
PFLOTRAN output
ASCII
DATASET UNSTRUCTURED_GRID
POINTS          462 float
 0.000000E+00  0.000000E+00  0.000000E+00
 1.000000E+01  0.000000E+00  0.000000E+00
 2.000000E+01  0.000000E+00  0.000000E+00
 3.000000E+01  0.000000E+00  0.000000E+00
 4.000000E+01  0.000000E+00  0.000000E+00
 5.000000E+01  0.000000E+00  0.000000E+00
 6.000000E+01  0.000000E+00  0.000000E+00
 7.000000E+01  0.000000E+00  0.000000E+00
 8.000000E+01  0.000000E+00  0.000000E+00
 9.000000E+01  0.000000E+00  0.000000E+00
 1.000000E+02  0.000000E+00  0.000000E+00
 0.000000E+00  1.000000E+00  0.000000E+00
 1.000000E+01  1.000000E+00  0.000000E+00
 2.000000E+01  1.000000E+00  0.000000E+00
 3.000000E+01  1.000000E+00  0.000000E+00
 4.000000E+01  1.000000E+00  0.000000E+00
 5.000000E+01  1.000000E+00  0.000000E+00
 6.000000E+01  1.000000E+00  0.000000E+00
 7.000000E+01  1.000000E+00  0.000000E+00
 8.000000E+01  1.000000E+00  0.000000E+00
 9.000000E+01  1.000000E+00  0.000000E+00
 1.000000E+02  1.000000E+00  0.000000E+00
 0.000000E+00  0.000000E+00  5.000000E+00
 1.000000E+01  0.000000E+00  5.000000E+00
 2.000000E+01  0.000000E+00  5.000000E+00
 3.000000E+01  0.000000E+00  5.000000E+00
 4.000000E+01  0.000000E+00  5.000000E+00
 5.000000E+01  0.000000E+00  5.000000E+00
 6.000000E+01  0.000000E+00  5.000000E+00
 7.000000E+01  0.000000E+00  5.000000E+00
 8.000000E+01  0.000000E+00  5.000000E+00
 9.000000E+01  0.000000E+00  5.000000E+00
 1.000000E+02  0.000000E+00  5.000000E+00
 0.000000E+00  1.000000E+00  5.000000E+00
 1.000000E+01  1.000000E+00  5.000000E+00
 2.000000E+01  1.000000E+00  5.000000E+00
 3.000000E+01  1.000000E+00  5.000000E+00
 4.000000E+01  1.000000E+00  5.000000E+00
 5.000000E+01  1.000000E+00  5.000000E+00
 6.000000E+01  1.000000E+00  5.000000E+00
 7.000000E+01  1.000000E+00  5.000000E+00
 8.000000E+01  1.000000E+00  5.000000E+00
 9.000000E+01  1.000000E+00  5.000000E+00
 1.000000E+02  1.000000E+00  5.000000E+00
 0.000000E+00  0.000000E+00  1.000000E+01
 1.000000E+01  0.000000E+00  1.000000E+01
 2.000000E+01  0.000000E+00  1.000000E+01
 3.000000E+01  0.000000E+00  1.000000E+01
 4.000000E+01  0.000000E+00  1.000000E+01
 5.000000E+01  0.000000E+00  1.000000E+01
 6.000000E+01  0.000000E+00  1.000000E+01
 7.000000E+01  0.000000E+00  1.000000E+01
 8.000000E+01  0.000000E+00  1.000000E+01
 9.000000E+01  0.000000E+00  1.000000E+01
 1.000000E+02  0.000000E+00  1.000000E+01
 0.000000E+00  1.000000E+00  1.000000E+01
 1.000000E+01  1.000000E+00  1.000000E+01
 2.000000E+01  1.000000E+00  1.000000E+01
 3.000000E+01  1.000000E+00  1.000000E+01
 4.000000E+01  1.000000E+00  1.000000E+01
 5.000000E+01  1.000000E+00  1.000000E+01
 6.000000E+01  1.000000E+00  1.000000E+01
 7.000000E+01  1.000000E+00  1.000000E+01
 8.000000E+01  1.000000E+00  1.000000E+01
 9.000000E+01  1.000000E+00  1.000000E+01
 1.000000E+02  1.000000E+00  1.000000E+01
 0.000000E+00  0.000000E+00  1.500000E+01
 1.000000E+01  0.000000E+00  1.500000E+01
 2.000000E+01  0.000000E+00  1.500000E+01
 3.000000E+01  0.000000E+00  1.500000E+01
 4.000000E+01  0.000000E+00  1.500000E+01
 5.000000E+01  0.000000E+00  1.500000E+01
 6.000000E+01  0.000000E+00  1.500000E+01
 7.000000E+01  0.000000E+00  1.500000E+01
 8.000000E+01  0.000000E+00  1.500000E+01
 9.000000E+01  0.000000E+00  1.500000E+01
 1.000000E+02  0.000000E+00  1.500000E+01
 0.000000E+00  1.000000E+00  1.500000E+01
 1.000000E+01  1.000000E+00  1.500000E+01
 2.000000E+01  1.000000E+00  1.500000E+01
 3.000000E+01  1.000000E+00  1.500000E+01
 4.000000E+01  1.000000E+00  1.500000E+01
 5.000000E+01  1.000000E+00  1.500000E+01
 6.000000E+01  1.000000E+00  1.500000E+01
 7.000000E+01  1.000000E+00  1.500000E+01
 8.000000E+01  1.000000E+00  1.500000E+01
 9.000000E+01  1.000000E+00  1.500000E+01
 1.000000E+02  1.000000E+00  1.500000E+01
 0.000000E+00  0.000000E+00  2.000000E+01
 1.000000E+01  0.000000E+00  2.000000E+01
 2.000000E+01  0.000000E+00  2.000000E+01
 3.000000E+01  0.000000E+00  2.000000E+01
 4.000000E+01  0.000000E+00  2.000000E+01
 5.000000E+01  0.000000E+00  2.000000E+01
 6.000000E+01  0.000000E+00  2.000000E+01
 7.000000E+01  0.000000E+00  2.000000E+01
 8.000000E+01  0.000000E+00  2.000000E+01
 9.000000E+01  0.000000E+00  2.000000E+01
 1.000000E+02  0.000000E+00  2.000000E+01
 0.000000E+00  1.000000E+00  2.000000E+01
 1.000000E+01  1.000000E+00  2.000000E+01
 2.000000E+01  1.000000E+00  2.000000E+01
 3.000000E+01  1.000000E+00  2.000000E+01
 4.000000E+01  1.000000E+00  2.000000E+01
 5.000000E+01  1.000000E+00  2.000000E+01
 6.000000E+01  1.000000E+00  2.000000E+01
 7.000000E+01  1.000000E+00  2.000000E+01
 8.000000E+01  1.000000E+00  2.000000E+01
 9.000000E+01  1.000000E+00  2.000000E+01
 1.000000E+02  1.000000E+00  2.000000E+01
 0.000000E+00  0.000000E+00  2.500000E+01
 1.000000E+01  0.000000E+00  2.500000E+01
 2.000000E+01  0.000000E+00  2.500000E+01
 3.000000E+01  0.000000E+00  2.500000E+01
 4.000000E+01  0.000000E+00  2.500000E+01
 5.000000E+01  0.000000E+00  2.500000E+01
 6.000000E+01  0.000000E+00  2.500000E+01
 7.000000E+01  0.000000E+00  2.500000E+01
 8.000000E+01  0.000000E+00  2.500000E+01
 9.000000E+01  0.000000E+00  2.500000E+01
 1.000000E+02  0.000000E+00  2.500000E+01
 0.000000E+00  1.000000E+00  2.500000E+01
 1.000000E+01  1.000000E+00  2.500000E+01
 2.000000E+01  1.000000E+00  2.500000E+01
 3.000000E+01  1.000000E+00  2.500000E+01
 4.000000E+01  1.000000E+00  2.500000E+01
 5.000000E+01  1.000000E+00  2.500000E+01
 6.000000E+01  1.000000E+00  2.500000E+01
 7.000000E+01  1.000000E+00  2.500000E+01
 8.000000E+01  1.000000E+00  2.500000E+01
 9.000000E+01  1.000000E+00  2.500000E+01
 1.000000E+02  1.000000E+00  2.500000E+01
 0.000000E+00  0.000000E+00  3.000000E+01
 1.000000E+01  0.000000E+00  3.000000E+01
 2.000000E+01  0.000000E+00  3.000000E+01
 3.000000E+01  0.000000E+00  3.000000E+01
 4.000000E+01  0.000000E+00  3.000000E+01
 5.000000E+01  0.000000E+00  3.000000E+01
 6.000000E+01  0.000000E+00  3.000000E+01
 7.000000E+01  0.000000E+00  3.000000E+01
 8.000000E+01  0.000000E+00  3.000000E+01
 9.000000E+01  0.000000E+00  3.000000E+01
 1.000000E+02  0.000000E+00  3.000000E+01
 0.000000E+00  1.000000E+00  3.000000E+01
 1.000000E+01  1.000000E+00  3.000000E+01
 2.000000E+01  1.000000E+00  3.000000E+01
 3.000000E+01  1.000000E+00  3.000000E+01
 4.000000E+01  1.000000E+00  3.000000E+01
 5.000000E+01  1.000000E+00  3.000000E+01
 6.000000E+01  1.000000E+00  3.000000E+01
 7.000000E+01  1.000000E+00  3.000000E+01
 8.000000E+01  1.000000E+00  3.000000E+01
 9.000000E+01  1.000000E+00  3.000000E+01
 1.000000E+02  1.000000E+00  3.000000E+01
 0.000000E+00  0.000000E+00  3.500000E+01
 1.000000E+01  0.000000E+00  3.500000E+01
 2.000000E+01  0.000000E+00  3.500000E+01
 3.000000E+01  0.000000E+00  3.500000E+01
 4.000000E+01  0.000000E+00  3.500000E+01
 5.000000E+01  0.000000E+00  3.500000E+01
 6.000000E+01  0.000000E+00  3.500000E+01
 7.000000E+01  0.000000E+00  3.500000E+01
 8.000000E+01  0.000000E+00  3.500000E+01
 9.000000E+01  0.000000E+00  3.500000E+01
 1.000000E+02  0.000000E+00  3.500000E+01
 0.000000E+00  1.000000E+00  3.500000E+01
 1.000000E+01  1.000000E+00  3.500000E+01
 2.000000E+01  1.000000E+00  3.500000E+01
 3.000000E+01  1.000000E+00  3.500000E+01
 4.000000E+01  1.000000E+00  3.500000E+01
 5.000000E+01  1.000000E+00  3.500000E+01
 6.000000E+01  1.000000E+00  3.500000E+01
 7.000000E+01  1.000000E+00  3.500000E+01
 8.000000E+01  1.000000E+00  3.500000E+01
 9.000000E+01  1.000000E+00  3.500000E+01
 1.000000E+02  1.000000E+00  3.500000E+01
 0.000000E+00  0.000000E+00  4.000000E+01
 1.000000E+01  0.000000E+00  4.000000E+01
 2.000000E+01  0.000000E+00  4.000000E+01
 3.000000E+01  0.000000E+00  4.000000E+01
 4.000000E+01  0.000000E+00  4.000000E+01
 5.000000E+01  0.000000E+00  4.000000E+01
 6.000000E+01  0.000000E+00  4.000000E+01
 7.000000E+01  0.000000E+00  4.000000E+01
 8.000000E+01  0.000000E+00  4.000000E+01
 9.000000E+01  0.000000E+00  4.000000E+01
 1.000000E+02  0.000000E+00  4.000000E+01
 0.000000E+00  1.000000E+00  4.000000E+01
 1.000000E+01  1.000000E+00  4.000000E+01
 2.000000E+01  1.000000E+00  4.000000E+01
 3.000000E+01  1.000000E+00  4.000000E+01
 4.000000E+01  1.000000E+00  4.000000E+01
 5.000000E+01  1.000000E+00  4.000000E+01
 6.000000E+01  1.000000E+00  4.000000E+01
 7.000000E+01  1.000000E+00  4.000000E+01
 8.000000E+01  1.000000E+00  4.000000E+01
 9.000000E+01  1.000000E+00  4.000000E+01
 1.000000E+02  1.000000E+00  4.000000E+01
 0.000000E+00  0.000000E+00  4.500000E+01
 1.000000E+01  0.000000E+00  4.500000E+01
 2.000000E+01  0.000000E+00  4.500000E+01
 3.000000E+01  0.000000E+00  4.500000E+01
 4.000000E+01  0.000000E+00  4.500000E+01
 5.000000E+01  0.000000E+00  4.500000E+01
 6.000000E+01  0.000000E+00  4.500000E+01
 7.000000E+01  0.000000E+00  4.500000E+01
 8.000000E+01  0.000000E+00  4.500000E+01
 9.000000E+01  0.000000E+00  4.500000E+01
 1.000000E+02  0.000000E+00  4.500000E+01
 0.000000E+00  1.000000E+00  4.500000E+01
 1.000000E+01  1.000000E+00  4.500000E+01
 2.000000E+01  1.000000E+00  4.500000E+01
 3.000000E+01  1.000000E+00  4.500000E+01
 4.000000E+01  1.000000E+00  4.500000E+01
 5.000000E+01  1.000000E+00  4.500000E+01
 6.000000E+01  1.000000E+00  4.500000E+01
 7.000000E+01  1.000000E+00  4.500000E+01
 8.000000E+01  1.000000E+00  4.500000E+01
 9.000000E+01  1.000000E+00  4.500000E+01
 1.000000E+02  1.000000E+00  4.500000E+01
 0.000000E+00  0.000000E+00  5.000000E+01
 1.000000E+01  0.000000E+00  5.000000E+01
 2.000000E+01  0.000000E+00  5.000000E+01
 3.000000E+01  0.000000E+00  5.000000E+01
 4.000000E+01  0.000000E+00  5.000000E+01
 5.000000E+01  0.000000E+00  5.000000E+01
 6.000000E+01  0.000000E+00  5.000000E+01
 7.000000E+01  0.000000E+00  5.000000E+01
 8.000000E+01  0.000000E+00  5.000000E+01
 9.000000E+01  0.000000E+00  5.000000E+01
 1.000000E+02  0.000000E+00  5.000000E+01
 0.000000E+00  1.000000E+00  5.000000E+01
 1.000000E+01  1.000000E+00  5.000000E+01
 2.000000E+01  1.000000E+00  5.000000E+01
 3.000000E+01  1.000000E+00  5.000000E+01
[...]
CELL_DATA      200
SCALARS Porosity             float 1
LOOKUP_TABLE default
 4.377084E-01  4.377098E-01  4.377100E-01  4.377100E-01  4.377100E-01  4.377100E-01  4.377100E-01  4.377100E-01  4.377100E-01  4.377100E-01
 4.376957E-01  4.377077E-01  4.377097E-01  4.377100E-01  4.377100E-01  4.377100E-01  4.377100E-01  4.377100E-01  4.377100E-01  4.377100E-01
 4.376411E-01  4.376974E-01  4.377082E-01  4.377098E-01  4.377100E-01  4.377100E-01  4.377100E-01  4.377100E-01  4.377100E-01  4.377100E-01
 4.374918E-01  4.376622E-01  4.377024E-01  4.377091E-01  4.377099E-01  4.377100E-01  4.377100E-01  4.377100E-01  4.377100E-01  4.377100E-01
 4.372433E-01  4.375761E-01  4.376858E-01  4.377068E-01  4.377096E-01  4.377099E-01  4.377100E-01  4.377100E-01  4.377100E-01  4.377100E-01
 4.372254E-01  4.374329E-01  4.376506E-01  4.377015E-01  4.377090E-01  4.377099E-01  4.377100E-01  4.377100E-01  4.377100E-01  4.377100E-01
 4.383425E-01  4.373387E-01  4.376011E-01  4.376929E-01  4.377080E-01  4.377098E-01  4.377100E-01  4.377100E-01  4.377100E-01  4.377100E-01
 4.383429E-01  4.373114E-01  4.375760E-01  4.376871E-01  4.377072E-01  4.377097E-01  4.377100E-01  4.377100E-01  4.377100E-01  4.377100E-01
 4.383431E-01  4.373000E-01  4.375614E-01  4.376832E-01  4.377066E-01  4.377096E-01  4.377099E-01  4.377100E-01  4.377100E-01  4.377100E-01
 4.383432E-01  4.372954E-01  4.375546E-01  4.376812E-01  4.377063E-01  4.377096E-01  4.377099E-01  4.377100E-01  4.377100E-01  4.377100E-01
 4.383431E-01  4.372953E-01  4.375546E-01  4.376812E-01  4.377063E-01  4.377096E-01  4.377099E-01  4.377100E-01  4.377100E-01  4.377100E-01
 4.383428E-01  4.372999E-01  4.375614E-01  4.376832E-01  4.377066E-01  4.377096E-01  4.377099E-01  4.377100E-01  4.377100E-01  4.377100E-01
 4.383423E-01  4.373112E-01  4.375760E-01  4.376871E-01  4.377072E-01  4.377097E-01  4.377100E-01  4.377100E-01  4.377100E-01  4.377100E-01
 4.383417E-01  4.373386E-01  4.376011E-01  4.376929E-01  4.377080E-01  4.377098E-01  4.377100E-01  4.377100E-01  4.377100E-01  4.377100E-01
 4.372251E-01  4.374329E-01  4.376506E-01  4.377015E-01  4.377090E-01  4.377099E-01  4.377100E-01  4.377100E-01  4.377100E-01  4.377100E-01
 4.372433E-01  4.375762E-01  4.376859E-01  4.377068E-01  4.377096E-01  4.377100E-01  4.377100E-01  4.377100E-01  4.377100E-01  4.377100E-01
 4.374919E-01  4.376623E-01  4.377025E-01  4.377091E-01  4.377099E-01  4.377100E-01  4.377100E-01  4.377100E-01  4.377100E-01  4.377100E-01
 4.376413E-01  4.376975E-01  4.377082E-01  4.377098E-01  4.377100E-01  4.377100E-01  4.377100E-01  4.377100E-01  4.377100E-01  4.377100E-01
 4.376958E-01  4.377078E-01  4.377097E-01  4.377100E-01  4.377100E-01  4.377100E-01  4.377100E-01  4.377100E-01  4.377100E-01  4.377100E-01
 4.377085E-01  4.377098E-01  4.377100E-01  4.377100E-01  4.377100E-01  4.377100E-01  4.377100E-01  4.377100E-01  4.377100E-01  4.377100E-01


SCALARS Permeability         float 1
LOOKUP_TABLE default
 8.829727E-13  8.829794E-13  8.829804E-13  8.829805E-13  8.829805E-13  8.829805E-13  8.829805E-13  8.829805E-13  8.829805E-13  8.829805E-13
 8.829083E-13  8.829691E-13  8.829790E-13  8.829803E-13  8.829805E-13  8.829805E-13  8.829805E-13  8.829805E-13  8.829805E-13  8.829805E-13
 8.826325E-13  8.829170E-13  8.829715E-13  8.829794E-13  8.829803E-13  8.829805E-13  8.829805E-13  8.829805E-13  8.829805E-13  8.829805E-13
 8.818778E-13  8.827389E-13  8.829423E-13  8.829758E-13  8.829799E-13  8.829804E-13  8.829805E-13  8.829805E-13  8.829805E-13  8.829805E-13
 8.806232E-13  8.823038E-13  8.828583E-13  8.829643E-13  8.829787E-13  8.829803E-13  8.829804E-13  8.829805E-13  8.829805E-13  8.829805E-13
 8.805332E-13  8.815805E-13  8.826802E-13  8.829373E-13  8.829757E-13  8.829800E-13  8.829804E-13  8.829805E-13  8.829805E-13  8.829805E-13
 8.861809E-13  8.811050E-13  8.824301E-13  8.828939E-13  8.829704E-13  8.829795E-13  8.829803E-13  8.829805E-13  8.829805E-13  8.829805E-13
 8.861830E-13  8.809670E-13  8.823033E-13  8.828648E-13  8.829664E-13  8.829790E-13  8.829803E-13  8.829805E-13  8.829805E-13  8.829805E-13
 8.861844E-13  8.809093E-13  8.822297E-13  8.828449E-13  8.829633E-13  8.829787E-13  8.829803E-13  8.829804E-13  8.829805E-13  8.829805E-13
 8.861848E-13  8.808861E-13  8.821955E-13  8.828347E-13  8.829617E-13  8.829785E-13  8.829802E-13  8.829804E-13  8.829805E-13  8.829805E-13
 8.861842E-13  8.808860E-13  8.821955E-13  8.828347E-13  8.829617E-13  8.829785E-13  8.829802E-13  8.829804E-13  8.829805E-13  8.829805E-13
 8.861827E-13  8.809089E-13  8.822298E-13  8.828450E-13  8.829634E-13  8.829787E-13  8.829803E-13  8.829805E-13  8.829805E-13  8.829805E-13
 8.861802E-13  8.809663E-13  8.823034E-13  8.828649E-13  8.829664E-13  8.829790E-13  8.829803E-13  8.829805E-13  8.829805E-13  8.829805E-13
 8.861772E-13  8.811044E-13  8.824303E-13  8.828941E-13  8.829705E-13  8.829795E-13  8.829804E-13  8.829805E-13  8.829805E-13  8.829805E-13
 8.805313E-13  8.815808E-13  8.826806E-13  8.829375E-13  8.829757E-13  8.829800E-13  8.829804E-13  8.829805E-13  8.829805E-13  8.829805E-13
 8.806234E-13  8.823044E-13  8.828587E-13  8.829645E-13  8.829788E-13  8.829803E-13  8.829805E-13  8.829805E-13  8.829805E-13  8.829805E-13
 8.818787E-13  8.827395E-13  8.829426E-13  8.829759E-13  8.829800E-13  8.829804E-13  8.829805E-13  8.829805E-13  8.829805E-13  8.829805E-13
 8.826332E-13  8.829174E-13  8.829717E-13  8.829794E-13  8.829804E-13  8.829805E-13  8.829805E-13  8.829805E-13  8.829805E-13  8.829805E-13
 8.829086E-13  8.829692E-13  8.829790E-13  8.829803E-13  8.829805E-13  8.829805E-13  8.829806E-13  8.829806E-13  8.829805E-13  8.829805E-13
 8.829727E-13  8.829794E-13  8.829804E-13  8.829805E-13  8.829806E-13  8.829806E-13  8.829806E-13  8.829806E-13  8.829805E-13  8.829805E-13


SCALARS Liquid_Pressure      float 1
LOOKUP_TABLE default
 8.009987E+06  7.965058E+06  7.898254E+06  7.825921E+06  7.756263E+06  7.692394E+06  7.634955E+06  7.583568E+06  7.537533E+06  7.496125E+06
 7.987288E+06  7.934674E+06  7.861431E+06  7.785165E+06  7.713367E+06  7.648388E+06  7.590381E+06  7.538701E+06  7.492510E+06  7.451009E+06
 7.990905E+06  7.919937E+06  7.832841E+06  7.748578E+06  7.672566E+06  7.605434E+06  7.546334E+06  7.494095E+06  7.447604E+06  7.405927E+06
 8.030060E+06  7.922413E+06  7.812113E+06  7.715653E+06  7.633520E+06  7.563341E+06  7.502714E+06  7.449696E+06  7.402793E+06  7.360871E+06
 8.123213E+06  7.943753E+06  7.798272E+06  7.685528E+06  7.595716E+06  7.521830E+06  7.459376E+06  7.405435E+06  7.358044E+06  7.315834E+06
 8.306347E+06  7.983783E+06  7.789180E+06  7.656908E+06  7.558479E+06  7.480558E+06  7.416146E+06  7.361225E+06  7.313318E+06  7.270803E+06
 8.649828E+06  8.035082E+06  7.780899E+06  7.628079E+06  7.521014E+06  7.439143E+06  7.372837E+06  7.316974E+06  7.268573E+06  7.225769E+06
 8.823222E+06  8.068559E+06  7.767706E+06  7.597111E+06  7.482503E+06  7.397202E+06  7.329264E+06  7.272593E+06  7.223771E+06  7.180719E+06
 8.897350E+06  8.076418E+06  7.745614E+06  7.562356E+06  7.442223E+06  7.354402E+06  7.285268E+06  7.228007E+06  7.178878E+06  7.135645E+06
 8.905170E+06  8.057590E+06  7.712444E+06  7.522684E+06  7.399648E+06  7.310496E+06  7.240730E+06  7.183159E+06  7.133868E+06  7.090540E+06
 8.859951E+06  8.012414E+06  7.667285E+06  7.477533E+06  7.354502E+06  7.265353E+06  7.195589E+06  7.138018E+06  7.088728E+06  7.045401E+06
 8.761698E+06  7.940892E+06  7.610137E+06  7.426904E+06  7.306786E+06  7.218974E+06  7.149845E+06  7.092586E+06  7.043458E+06  7.000226E+06
 8.597162E+06  7.842694E+06  7.541914E+06  7.371359E+06  7.256776E+06  7.171490E+06  7.103560E+06  7.046892E+06  6.998072E+06  6.955021E+06
 8.333418E+06  7.718894E+06  7.464801E+06  7.312031E+06  7.204998E+06  7.123146E+06  7.056850E+06  7.000992E+06  6.952594E+06  6.909791E+06
 7.899701E+06  7.577296E+06  7.382782E+06  7.250567E+06  7.152175E+06  7.074277E+06  7.009877E+06  6.954962E+06  6.907058E+06  6.864546E+06
 7.626333E+06  7.446983E+06  7.301584E+06  7.188897E+06  7.099126E+06  7.025265E+06  6.962824E+06  6.908890E+06  6.861504E+06  6.819296E+06
 7.442936E+06  7.335367E+06  7.225140E+06  7.128738E+06  7.046646E+06  6.976492E+06  6.915879E+06  6.862870E+06  6.815972E+06  6.774054E+06
 7.313528E+06  7.242617E+06  7.155586E+06  7.071378E+06  6.995407E+06  6.928301E+06  6.869216E+06  6.816986E+06  6.770502E+06  6.728830E+06
 7.219645E+06  7.167078E+06  7.093894E+06  7.017680E+06  6.945922E+06  6.880969E+06  6.822978E+06  6.771310E+06  6.725126E+06  6.683633E+06
 7.152065E+06  7.107178E+06  7.040430E+06  6.968149E+06  6.898530E+06  6.834688E+06  6.777268E+06  6.725894E+06  6.679868E+06  6.638469E+06


SCALARS Temperature          float 1
LOOKUP_TABLE default
 1.500895E+02  1.500850E+02  1.500748E+02  1.500614E+02  1.500497E+02  1.500406E+02  1.500328E+02  1.500256E+02  1.500190E+02  1.500132E+02
 1.501012E+02  1.501082E+02  1.501071E+02  1.500912E+02  1.500687E+02  1.500495E+02  1.500360E+02  1.500265E+02  1.500192E+02  1.500132E+02
 1.501013E+02  1.501140E+02  1.501237E+02  1.501165E+02  1.500916E+02  1.500635E+02  1.500424E+02  1.500289E+02  1.500200E+02  1.500135E+02
 1.500964E+02  1.501148E+02  1.501318E+02  1.501346E+02  1.501137E+02  1.500803E+02  1.500514E+02  1.500326E+02  1.500213E+02  1.500140E+02
 1.500842E+02  1.501130E+02  1.501366E+02  1.501476E+02  1.501333E+02  1.500981E+02  1.500622E+02  1.500376E+02  1.500232E+02  1.500146E+02
 1.500592E+02  1.501095E+02  1.501410E+02  1.501583E+02  1.501504E+02  1.501155E+02  1.500740E+02  1.500433E+02  1.500255E+02  1.500154E+02
 1.500098E+02  1.501064E+02  1.501471E+02  1.501689E+02  1.501660E+02  1.501320E+02  1.500858E+02  1.500494E+02  1.500279E+02  1.500163E+02
 1.500033E+02  1.501140E+02  1.501578E+02  1.501811E+02  1.501808E+02  1.501473E+02  1.500971E+02  1.500554E+02  1.500304E+02  1.500172E+02
 1.500012E+02  1.501193E+02  1.501658E+02  1.501903E+02  1.501919E+02  1.501590E+02  1.501059E+02  1.500602E+02  1.500325E+02  1.500179E+02
 1.500011E+02  1.501229E+02  1.501714E+02  1.501970E+02  1.501996E+02  1.501669E+02  1.501118E+02  1.500635E+02  1.500338E+02  1.500184E+02
 1.500011E+02  1.501229E+02  1.501714E+02  1.501969E+02  1.501996E+02  1.501669E+02  1.501119E+02  1.500635E+02  1.500339E+02  1.500184E+02
 1.500025E+02  1.501225E+02  1.501705E+02  1.501960E+02  1.501979E+02  1.501642E+02  1.501094E+02  1.500621E+02  1.500333E+02  1.500183E+02
 1.500062E+02  1.501209E+02  1.501677E+02  1.501929E+02  1.501930E+02  1.501576E+02  1.501039E+02  1.500591E+02  1.500321E+02  1.500179E+02
 1.500149E+02  1.501179E+02  1.501631E+02  1.501875E+02  1.501845E+02  1.501471E+02  1.500955E+02  1.500545E+02  1.500303E+02  1.500172E+02
 1.500775E+02  1.501320E+02  1.501668E+02  1.501858E+02  1.501762E+02  1.501352E+02  1.500861E+02  1.500495E+02  1.500282E+02  1.500165E+02
 1.501157E+02  1.501476E+02  1.501736E+02  1.501850E+02  1.501661E+02  1.501214E+02  1.500757E+02  1.500441E+02  1.500260E+02  1.500157E+02
 1.501411E+02  1.501619E+02  1.501803E+02  1.501810E+02  1.501512E+02  1.501048E+02  1.500647E+02  1.500388E+02  1.500240E+02  1.500150E+02
 1.501592E+02  1.501737E+02  1.501828E+02  1.501684E+02  1.501294E+02  1.500861E+02  1.500539E+02  1.500341E+02  1.500222E+02  1.500143E+02
 1.501720E+02  1.501784E+02  1.501708E+02  1.501406E+02  1.501005E+02  1.500668E+02  1.500443E+02  1.500302E+02  1.500208E+02  1.500138E+02
 1.501643E+02  1.501505E+02  1.501253E+02  1.500948E+02  1.500686E+02  1.500501E+02  1.500372E+02  1.500275E+02  1.500198E+02  1.500135E+02


SCALARS pH                   float 1
LOOKUP_TABLE default
 6.145632E+00  6.145595E+00  6.145482E+00  6.145259E+00  6.144955E+00  6.144653E+00  6.144426E+00  6.144291E+00  6.144226E+00  6.144195E+00
 6.145645E+00  6.145666E+00  6.145655E+00  6.145550E+00  6.145301E+00  6.144952E+00  6.144621E+00  6.144390E+00  6.144265E+00  6.144208E+00
 6.145611E+00  6.145663E+00  6.145684E+00  6.145649E+00  6.145484E+00  6.145168E+00  6.144796E+00  6.144495E+00  6.144313E+00  6.144225E+00
 6.145325E+00  6.145640E+00  6.145686E+00  6.145686E+00  6.145585E+00  6.145321E+00  6.144947E+00  6.144599E+00  6.144367E+00  6.144247E+00
 6.142224E+00  6.145504E+00  6.145679E+00  6.145703E+00  6.145643E+00  6.145429E+00  6.145070E+00  6.144695E+00  6.144421E+00  6.144271E+00
 6.117725E+00  6.144347E+00  6.145640E+00  6.145711E+00  6.145680E+00  6.145505E+00  6.145168E+00  6.144778E+00  6.144473E+00  6.144294E+00
 5.990663E+00  6.137446E+00  6.145426E+00  6.145717E+00  6.145708E+00  6.145561E+00  6.145243E+00  6.144846E+00  6.144517E+00  6.144316E+00
 5.990650E+00  6.135770E+00  6.145342E+00  6.145733E+00  6.145735E+00  6.145605E+00  6.145299E+00  6.144899E+00  6.144552E+00  6.144333E+00
 5.990650E+00  6.134988E+00  6.145294E+00  6.145746E+00  6.145755E+00  6.145635E+00  6.145339E+00  6.144936E+00  6.144576E+00  6.144345E+00
 5.990652E+00  6.134674E+00  6.145273E+00  6.145755E+00  6.145767E+00  6.145652E+00  6.145360E+00  6.144956E+00  6.144590E+00  6.144352E+00
 5.990648E+00  6.134669E+00  6.145270E+00  6.145752E+00  6.145765E+00  6.145651E+00  6.145360E+00  6.144956E+00  6.144590E+00  6.144353E+00
 5.990644E+00  6.134979E+00  6.145290E+00  6.145745E+00  6.145755E+00  6.145635E+00  6.145338E+00  6.144935E+00  6.144576E+00  6.144345E+00
 5.990643E+00  6.135759E+00  6.145337E+00  6.145733E+00  6.145737E+00  6.145605E+00  6.145299E+00  6.144898E+00  6.144551E+00  6.144333E+00
 5.990659E+00  6.137435E+00  6.145424E+00  6.145721E+00  6.145713E+00  6.145563E+00  6.145242E+00  6.144845E+00  6.144516E+00  6.144315E+00
 6.117732E+00  6.144348E+00  6.145647E+00  6.145723E+00  6.145691E+00  6.145510E+00  6.145167E+00  6.144777E+00  6.144472E+00  6.144294E+00
 6.142236E+00  6.145518E+00  6.145698E+00  6.145724E+00  6.145659E+00  6.145435E+00  6.145070E+00  6.144694E+00  6.144421E+00  6.144270E+00
 6.145348E+00  6.145668E+00  6.145718E+00  6.145715E+00  6.145603E+00  6.145327E+00  6.144946E+00  6.144597E+00  6.144366E+00  6.144247E+00
 6.145647E+00  6.145704E+00  6.145724E+00  6.145680E+00  6.145499E+00  6.145170E+00  6.144794E+00  6.144493E+00  6.144313E+00  6.144225E+00
 6.145693E+00  6.145715E+00  6.145695E+00  6.145572E+00  6.145307E+00  6.144950E+00  6.144617E+00  6.144387E+00  6.144264E+00  6.144208E+00
 6.145676E+00  6.145629E+00  6.145499E+00  6.145261E+00  6.144949E+00  6.144645E+00  6.144421E+00  6.144289E+00  6.144225E+00  6.144195E+00


SCALARS Total_H+             float 1
LOOKUP_TABLE default
-3.047299E-03 -3.046883E-03 -3.047050E-03 -3.048056E-03 -3.049723E-03 -3.051534E-03 -3.053009E-03 -3.053982E-03 -3.054550E-03 -3.054890E-03
-3.048065E-03 -3.047060E-03 -3.046304E-03 -3.046414E-03 -3.047686E-03 -3.049752E-03 -3.051841E-03 -3.053389E-03 -3.054311E-03 -3.054811E-03
-3.048815E-03 -3.047616E-03 -3.046448E-03 -3.045882E-03 -3.046538E-03 -3.048408E-03 -3.050754E-03 -3.052738E-03 -3.054009E-03 -3.054699E-03
-3.048587E-03 -3.048166E-03 -3.046751E-03 -3.045745E-03 -3.045851E-03 -3.047382E-03 -3.049781E-03 -3.052075E-03 -3.053667E-03 -3.054561E-03
-3.032865E-03 -3.048296E-03 -3.047053E-03 -3.045741E-03 -3.045411E-03 -3.046592E-03 -3.048937E-03 -3.051443E-03 -3.053313E-03 -3.054406E-03
-2.896524E-03 -3.042843E-03 -3.047181E-03 -3.045735E-03 -3.045078E-03 -3.045958E-03 -3.048218E-03 -3.050869E-03 -3.052971E-03 -3.054248E-03
-2.267727E-03 -3.004229E-03 -3.046190E-03 -3.045615E-03 -3.044747E-03 -3.045408E-03 -3.047602E-03 -3.050370E-03 -3.052666E-03 -3.054102E-03
-2.267653E-03 -2.994456E-03 -3.045412E-03 -3.045311E-03 -3.044356E-03 -3.044894E-03 -3.047071E-03 -3.049953E-03 -3.052412E-03 -3.053980E-03
-2.267580E-03 -2.989775E-03 -3.044858E-03 -3.045050E-03 -3.044043E-03 -3.044504E-03 -3.046676E-03 -3.049643E-03 -3.052224E-03 -3.053890E-03
-2.267554E-03 -2.987847E-03 -3.044542E-03 -3.044856E-03 -3.043818E-03 -3.044246E-03 -3.046429E-03 -3.049458E-03 -3.052113E-03 -3.053837E-03
-2.267597E-03 -2.987882E-03 -3.044566E-03 -3.044873E-03 -3.043829E-03 -3.044253E-03 -3.046432E-03 -3.049457E-03 -3.052110E-03 -3.053834E-03
-2.267687E-03 -2.989780E-03 -3.044779E-03 -3.044920E-03 -3.043893E-03 -3.044375E-03 -3.046591E-03 -3.049598E-03 -3.052202E-03 -3.053880E-03
-2.267819E-03 -2.994410E-03 -3.045209E-03 -3.045018E-03 -3.044036E-03 -3.044629E-03 -3.046904E-03 -3.049867E-03 -3.052373E-03 -3.053964E-03
-2.267931E-03 -3.004082E-03 -3.045822E-03 -3.045129E-03 -3.044247E-03 -3.045012E-03 -3.047362E-03 -3.050252E-03 -3.052613E-03 -3.054080E-03
-2.896329E-03 -3.042336E-03 -3.046503E-03 -3.044970E-03 -3.044358E-03 -3.045427E-03 -3.047913E-03 -3.050723E-03 -3.052907E-03 -3.054222E-03
-3.032152E-03 -3.047375E-03 -3.046007E-03 -3.044663E-03 -3.044479E-03 -3.045959E-03 -3.048596E-03 -3.051286E-03 -3.053244E-03 -3.054378E-03
-3.047387E-03 -3.046819E-03 -3.045324E-03 -3.044383E-03 -3.044783E-03 -3.046722E-03 -3.049449E-03 -3.051927E-03 -3.053603E-03 -3.054534E-03
-3.047150E-03 -3.045849E-03 -3.044687E-03 -3.044362E-03 -3.045481E-03 -3.047819E-03 -3.050477E-03 -3.052617E-03 -3.053956E-03 -3.054677E-03
-3.045972E-03 -3.044963E-03 -3.044427E-03 -3.045014E-03 -3.046842E-03 -3.049331E-03 -3.051654E-03 -3.053309E-03 -3.054274E-03 -3.054795E-03
-3.045113E-03 -3.044999E-03 -3.045659E-03 -3.047202E-03 -3.049286E-03 -3.051341E-03 -3.052930E-03 -3.053948E-03 -3.054534E-03 -3.054882E-03


SCALARS Total_SiO2(aq)       float 1
LOOKUP_TABLE default
 1.040302E-02  1.039991E-02  1.039862E-02  1.039740E-02  1.039635E-02  1.039554E-02  1.039486E-02  1.039424E-02  1.039367E-02  1.039317E-02
 1.042983E-02  1.040606E-02  1.040194E-02  1.040007E-02  1.039806E-02  1.039636E-02  1.039517E-02  1.039433E-02  1.039369E-02  1.039318E-02
 1.053867E-02  1.042744E-02  1.040637E-02  1.040257E-02  1.040009E-02  1.039761E-02  1.039575E-02  1.039455E-02  1.039376E-02  1.039320E-02
 1.083774E-02  1.049791E-02  1.041876E-02  1.040557E-02  1.040214E-02  1.039910E-02  1.039655E-02  1.039489E-02  1.039389E-02  1.039325E-02
 1.141662E-02  1.067008E-02  1.045249E-02  1.041127E-02  1.040429E-02  1.040068E-02  1.039751E-02  1.039533E-02  1.039406E-02  1.039331E-02
 1.223034E-02  1.098423E-02  1.052335E-02  1.042292E-02  1.040697E-02  1.040230E-02  1.039855E-02  1.039585E-02  1.039426E-02  1.039338E-02
 1.306537E-02  1.139453E-02  1.062738E-02  1.044104E-02  1.041038E-02  1.040392E-02  1.039961E-02  1.039639E-02  1.039449E-02  1.039346E-02
 1.306422E-02  1.150344E-02  1.068052E-02  1.045362E-02  1.041326E-02  1.040540E-02  1.040060E-02  1.039692E-02  1.039471E-02  1.039354E-02
 1.306355E-02  1.155195E-02  1.071159E-02  1.046227E-02  1.041541E-02  1.040653E-02  1.040138E-02  1.039735E-02  1.039489E-02  1.039361E-02
 1.306339E-02  1.157163E-02  1.072624E-02  1.046686E-02  1.041672E-02  1.040728E-02  1.040191E-02  1.039764E-02  1.039501E-02  1.039365E-02
 1.306363E-02  1.157170E-02  1.072624E-02  1.046685E-02  1.041672E-02  1.040728E-02  1.040191E-02  1.039764E-02  1.039501E-02  1.039365E-02
 1.306433E-02  1.155238E-02  1.071196E-02  1.046273E-02  1.041591E-02  1.040697E-02  1.040169E-02  1.039752E-02  1.039497E-02  1.039364E-02
 1.306553E-02  1.150421E-02  1.068131E-02  1.045458E-02  1.041428E-02  1.040628E-02  1.040119E-02  1.039724E-02  1.039486E-02  1.039360E-02
 1.306714E-02  1.139567E-02  1.062864E-02  1.044254E-02  1.041194E-02  1.040521E-02  1.040045E-02  1.039684E-02  1.039469E-02  1.039354E-02
 1.223221E-02  1.098598E-02  1.052538E-02  1.042518E-02  1.040916E-02  1.040400E-02  1.039961E-02  1.039638E-02  1.039450E-02  1.039347E-02
 1.141904E-02  1.067271E-02  1.045545E-02  1.041438E-02  1.040709E-02  1.040270E-02  1.039869E-02  1.039591E-02  1.039431E-02  1.039340E-02
 1.084111E-02  1.050161E-02  1.042274E-02  1.040948E-02  1.040536E-02  1.040123E-02  1.039771E-02  1.039543E-02  1.039412E-02  1.039334E-02
 1.054323E-02  1.043230E-02  1.041131E-02  1.040700E-02  1.040336E-02  1.039959E-02  1.039675E-02  1.039501E-02  1.039396E-02  1.039328E-02
 1.043565E-02  1.041195E-02  1.040738E-02  1.040434E-02  1.040084E-02  1.039789E-02  1.039590E-02  1.039466E-02  1.039383E-02  1.039323E-02