# vtk DataFile Version 2.0
PFLOTRAN output
ASCII
DATASET UNSTRUCTURED_GRID
POINTS         4242 float
 0.000000E+00  0.000000E+00  0.000000E+00
 2.000000E+02  0.000000E+00  0.000000E+00
 4.000000E+02  0.000000E+00  0.000000E+00
 6.000000E+02  0.000000E+00  0.000000E+00
 8.000000E+02  0.000000E+00  0.000000E+00
 1.000000E+03  0.000000E+00  0.000000E+00
 1.200000E+03  0.000000E+00  0.000000E+00
 1.400000E+03  0.000000E+00  0.000000E+00
 1.600000E+03  0.000000E+00  0.000000E+00
 1.800000E+03  0.000000E+00  0.000000E+00
 2.000000E+03  0.000000E+00  0.000000E+00
 2.200000E+03  0.000000E+00  0.000000E+00
 2.400000E+03  0.000000E+00  0.000000E+00
 2.600000E+03  0.000000E+00  0.000000E+00
 2.800000E+03  0.000000E+00  0.000000E+00
 3.000000E+03  0.000000E+00  0.000000E+00
 3.200000E+03  0.000000E+00  0.000000E+00
 3.400000E+03  0.000000E+00  0.000000E+00
 3.600000E+03  0.000000E+00  0.000000E+00
 3.800000E+03  0.000000E+00  0.000000E+00
 4.000000E+03  0.000000E+00  0.000000E+00
 4.200000E+03  0.000000E+00  0.000000E+00
 4.400000E+03  0.000000E+00  0.000000E+00
 4.600000E+03  0.000000E+00  0.000000E+00
 4.800000E+03  0.000000E+00  0.000000E+00
 5.000000E+03  0.000000E+00  0.000000E+00
 5.200000E+03  0.000000E+00  0.000000E+00
 5.400000E+03  0.000000E+00  0.000000E+00
 5.600000E+03  0.000000E+00  0.000000E+00
 5.800000E+03  0.000000E+00  0.000000E+00
 6.000000E+03  0.000000E+00  0.000000E+00
 6.200000E+03  0.000000E+00  0.000000E+00
 6.400000E+03  0.000000E+00  0.000000E+00
 6.600000E+03  0.000000E+00  0.000000E+00
 6.800000E+03  0.000000E+00  0.000000E+00
 7.000000E+03  0.000000E+00  0.000000E+00
 7.200000E+03  0.000000E+00  0.000000E+00
 7.400000E+03  0.000000E+00  0.000000E+00
 7.600000E+03  0.000000E+00  0.000000E+00
 7.800000E+03  0.000000E+00  0.000000E+00
 8.000000E+03  0.000000E+00  0.000000E+00
 8.200000E+03  0.000000E+00  0.000000E+00
 8.400000E+03  0.000000E+00  0.000000E+00
 8.600000E+03  0.000000E+00  0.000000E+00
 8.800000E+03  0.000000E+00  0.000000E+00
 9.000000E+03  0.000000E+00  0.000000E+00
 9.200000E+03  0.000000E+00  0.000000E+00
 9.400000E+03  0.000000E+00  0.000000E+00
 9.600000E+03  0.000000E+00  0.000000E+00
 9.800000E+03  0.000000E+00  0.000000E+00
 1.000000E+04  0.000000E+00  0.000000E+00
 1.020000E+04  0.000000E+00  0.000000E+00
 1.040000E+04  0.000000E+00  0.000000E+00
 1.060000E+04  0.000000E+00  0.000000E+00
 1.080000E+04  0.000000E+00  0.000000E+00
 1.100000E+04  0.000000E+00  0.000000E+00
 1.120000E+04  0.000000E+00  0.000000E+00
 1.140000E+04  0.000000E+00  0.000000E+00
 1.160000E+04  0.000000E+00  0.000000E+00
 1.180000E+04  0.000000E+00  0.000000E+00
 1.200000E+04  0.000000E+00  0.000000E+00
 1.220000E+04  0.000000E+00  0.000000E+00
 1.240000E+04  0.000000E+00  0.000000E+00
 1.260000E+04  0.000000E+00  0.000000E+00
 1.280000E+04  0.000000E+00  0.000000E+00
 1.300000E+04  0.000000E+00  0.000000E+00
 1.320000E+04  0.000000E+00  0.000000E+00
 1.340000E+04  0.000000E+00  0.000000E+00
 1.360000E+04  0.000000E+00  0.000000E+00
 1.380000E+04  0.000000E+00  0.000000E+00
 1.400000E+04  0.000000E+00  0.000000E+00
 1.420000E+04  0.000000E+00  0.000000E+00
 1.440000E+04  0.000000E+00  0.000000E+00
 1.460000E+04  0.000000E+00  0.000000E+00
 1.480000E+04  0.000000E+00  0.000000E+00
 1.500000E+04  0.000000E+00  0.000000E+00
 1.520000E+04  0.000000E+00  0.000000E+00
 1.540000E+04  0.000000E+00  0.000000E+00
 1.560000E+04  0.000000E+00  0.000000E+00
 1.580000E+04  0.000000E+00  0.000000E+00
 1.600000E+04  0.000000E+00  0.000000E+00
 1.620000E+04  0.000000E+00  0.000000E+00
 1.640000E+04  0.000000E+00  0.000000E+00
 1.660000E+04  0.000000E+00  0.000000E+00
 1.680000E+04  0.000000E+00  0.000000E+00
 1.700000E+04  0.000000E+00  0.000000E+00
 1.720000E+04  0.000000E+00  0.000000E+00
 1.740000E+04  0.000000E+00  0.000000E+00
 1.760000E+04  0.000000E+00  0.000000E+00
 1.780000E+04  0.000000E+00  0.000000E+00
 1.800000E+04  0.000000E+00  0.000000E+00
 1.820000E+04  0.000000E+00  0.000000E+00
 1.840000E+04  0.000000E+00  0.000000E+00
 1.860000E+04  0.000000E+00  0.000000E+00
 1.880000E+04  0.000000E+00  0.000000E+00
 1.900000E+04  0.000000E+00  0.000000E+00
 1.920000E+04  0.000000E+00  0.000000E+00
 1.940000E+04  0.000000E+00  0.000000E+00
 1.960000E+04  0.000000E+00  0.000000E+00
 1.980000E+04  0.000000E+00  0.000000E+00
 2.000000E+04  0.000000E+00  0.000000E+00
 0.000000E+00  1.000000E+00  0.000000E+00
 2.000000E+02  1.000000E+00  0.000000E+00
 4.000000E+02  1.000000E+00  0.000000E+00
 6.000000E+02  1.000000E+00  0.000000E+00
 8.000000E+02  1.000000E+00  0.000000E+00
 1.000000E+03  1.000000E+00  0.000000E+00
 1.200000E+03  1.000000E+00  0.000000E+00
 1.400000E+03  1.000000E+00  0.000000E+00
 1.600000E+03  1.000000E+00  0.000000E+00
 1.800000E+03  1.000000E+00  0.000000E+00
 2.000000E+03  1.000000E+00  0.000000E+00
 2.200000E+03  1.000000E+00  0.000000E+00
 2.400000E+03  1.000000E+00  0.000000E+00
 2.600000E+03  1.000000E+00  0.000000E+00
 2.800000E+03  1.000000E+00  0.000000E+00
 3.000000E+03  1.000000E+00  0.000000E+00
 3.200000E+03  1.000000E+00  0.000000E+00
 3.400000E+03  1.000000E+00  0.000000E+00
 3.600000E+03  1.000000E+00  0.000000E+00
 3.800000E+03  1.000000E+00  0.000000E+00
 4.000000E+03  1.000000E+00  0.000000E+00
 4.200000E+03  1.000000E+00  0.000000E+00
 4.400000E+03  1.000000E+00  0.000000E+00
 4.600000E+03  1.000000E+00  0.000000E+00
 4.800000E+03  1.000000E+00  0.000000E+00
 5.000000E+03  1.000000E+00  0.000000E+00
 5.200000E+03  1.000000E+00  0.000000E+00
 5.400000E+03  1.000000E+00  0.000000E+00
 5.600000E+03  1.000000E+00  0.000000E+00
 5.800000E+03  1.000000E+00  0.000000E+00
 6.000000E+03  1.000000E+00  0.000000E+00
 6.200000E+03  1.000000E+00  0.000000E+00
 6.400000E+03  1.000000E+00  0.000000E+00
 6.600000E+03  1.000000E+00  0.000000E+00
 6.800000E+03  1.000000E+00  0.000000E+00
 7.000000E+03  1.000000E+00  0.000000E+00
 7.200000E+03  1.000000E+00  0.000000E+00
 7.400000E+03  1.000000E+00  0.000000E+00
 7.600000E+03  1.000000E+00  0.000000E+00
 7.800000E+03  1.000000E+00  0.000000E+00
 8.000000E+03  1.000000E+00  0.000000E+00
 8.200000E+03  1.000000E+00  0.000000E+00
 8.400000E+03  1.000000E+00  0.000000E+00
 8.600000E+03  1.000000E+00  0.000000E+00
 8.800000E+03  1.000000E+00  0.000000E+00
 9.000000E+03  1.000000E+00  0.000000E+00
 9.200000E+03  1.000000E+00  0.000000E+00
 9.400000E+03  1.000000E+00  0.000000E+00
 9.600000E+03  1.000000E+00  0.000000E+00
 9.800000E+03  1.000000E+00  0.000000E+00
 1.000000E+04  1.000000E+00  0.000000E+00
 1.020000E+04  1.000000E+00  0.000000E+00
 1.040000E+04  1.000000E+00  0.000000E+00
 1.060000E+04  1.000000E+00  0.000000E+00
 1.080000E+04  1.000000E+00  0.000000E+00
 1.100000E+04  1.000000E+00  0.000000E+00
 1.120000E+04  1.000000E+00  0.000000E+00
 1.140000E+04  1.000000E+00  0.000000E+00
 1.160000E+04  1.000000E+00  0.000000E+00
 1.180000E+04  1.000000E+00  0.000000E+00
 1.200000E+04  1.000000E+00  0.000000E+00
 1.220000E+04  1.000000E+00  0.000000E+00
 1.240000E+04  1.000000E+00  0.000000E+00
 1.260000E+04  1.000000E+00  0.000000E+00
 1.280000E+04  1.000000E+00  0.000000E+00
 1.300000E+04  1.000000E+00  0.000000E+00
 1.320000E+04  1.000000E+00  0.000000E+00
 1.340000E+04  1.000000E+00  0.000000E+00
 1.360000E+04  1.000000E+00  0.000000E+00
 1.380000E+04  1.000000E+00  0.000000E+00
 1.400000E+04  1.000000E+00  0.000000E+00
 1.420000E+04  1.000000E+00  0.000000E+00
 1.440000E+04  1.000000E+00  0.000000E+00
 1.460000E+04  1.000000E+00  0.000000E+00
 1.480000E+04  1.000000E+00  0.000000E+00
 1.500000E+04  1.000000E+00  0.000000E+00
 1.520000E+04  1.000000E+00  0.000000E+00
 1.540000E+04  1.000000E+00  0.000000E+00
 1.560000E+04  1.000000E+00  0.000000E+00
 1.580000E+04  1.000000E+00  0.000000E+00
 1.600000E+04  1.000000E+00  0.000000E+00
 1.620000E+04  1.000000E+00  0.000000E+00
 1.640000E+04  1.000000E+00  0.000000E+00
 1.660000E+04  1.000000E+00  0.000000E+00
 1.680000E+04  1.000000E+00  0.000000E+00
 1.700000E+04  1.000000E+00  0.000000E+00
 1.720000E+04  1.000000E+00  0.000000E+00
 1.740000E+04  1.000000E+00  0.000000E+00
 1.760000E+04  1.000000E+00  0.000000E+00
 1.780000E+04  1.000000E+00  0.000000E+00
 1.800000E+04  1.000000E+00  0.000000E+00
 1.820000E+04  1.000000E+00  0.000000E+00
 1.840000E+04  1.000000E+00  0.000000E+00
 1.860000E+04  1.000000E+00  0.000000E+00
 1.880000E+04  1.000000E+00  0.000000E+00
 1.900000E+04  1.000000E+00  0.000000E+00
 1.920000E+04  1.000000E+00  0.000000E+00
 1.940000E+04  1.000000E+00  0.000000E+00
 1.960000E+04  1.000000E+00  0.000000E+00
 1.980000E+04  1.000000E+00  0.000000E+00
 2.000000E+04  1.000000E+00  0.000000E+00
 0.000000E+00  0.000000E+00  1.500000E+01
 2.000000E+02  0.000000E+00  1.500000E+01
 4.000000E+02  0.000000E+00  1.500000E+01
 6.000000E+02  0.000000E+00  1.500000E+01
 8.000000E+02  0.000000E+00  1.500000E+01
 1.000000E+03  0.000000E+00  1.500000E+01
 1.200000E+03  0.000000E+00  1.500000E+01
 1.400000E+03  0.000000E+00  1.500000E+01
 1.600000E+03  0.000000E+00  1.500000E+01
 1.800000E+03  0.000000E+00  1.500000E+01
 2.000000E+03  0.000000E+00  1.500000E+01
 2.200000E+03  0.000000E+00  1.500000E+01
 2.400000E+03  0.000000E+00  1.500000E+01
 2.600000E+03  0.000000E+00  1.500000E+01
 2.800000E+03  0.000000E+00  1.500000E+01
 3.000000E+03  0.000000E+00  1.500000E+01
 3.200000E+03  0.000000E+00  1.500000E+01
 3.400000E+03  0.000000E+00  1.500000E+01
 3.600000E+03  0.000000E+00  1.500000E+01
 3.800000E+03  0.000000E+00  1.500000E+01
 4.000000E+03  0.000000E+00  1.500000E+01
 4.200000E+03  0.000000E+00  1.500000E+01
 4.400000E+03  0.000000E+00  1.500000E+01
 4.600000E+03  0.000000E+00  1.500000E+01
 4.800000E+03  0.000000E+00  1.500000E+01
 5.000000E+03  0.000000E+00  1.500000E+01
 5.200000E+03  0.000000E+00  1.500000E+01
 5.400000E+03  0.000000E+00  1.500000E+01
 5.600000E+03  0.000000E+00  1.500000E+01
 5.800000E+03  0.000000E+00  1.500000E+01
 6.000000E+03  0.000000E+00  1.500000E+01
 6.200000E+03  0.000000E+00  1.500000E+01
 6.400000E+03  0.000000E+00  1.500000E+01
[...]
CELL_DATA     2000
SCALARS Vlx                  float 1
LOOKUP_TABLE default
 3.760295E+01  3.669559E+01  3.212681E+01  2.600688E+01  2.108206E+01  1.748295E+01  1.485725E+01  1.289388E+01  1.138185E+01  1.018516E+01
 9.215562E+00  8.414355E+00  7.741273E+00  7.167885E+00  6.673578E+00  6.243050E+00  5.864705E+00  5.529599E+00  5.230719E+00  4.962493E+00
 4.720436E+00  4.500894E+00  4.300867E+00  4.117864E+00  3.949799E+00  3.794916E+00  3.651722E+00  3.518941E+00  3.395479E+00  3.280387E+00
 3.172841E+00  3.072124E+00  2.977605E+00  2.888729E+00  2.805005E+00  2.725998E+00  2.651320E+00  2.580624E+00  2.513602E+00  2.449973E+00
 2.389486E+00  2.331914E+00  2.277051E+00  2.224711E+00  2.174723E+00  2.126932E+00  2.081197E+00  2.037388E+00  1.995385E+00  1.955079E+00
 1.916370E+00  1.879164E+00  1.843375E+00  1.808924E+00  1.775738E+00  1.743747E+00  1.712889E+00  1.683105E+00  1.654338E+00  1.626539E+00
 1.599658E+00  1.573652E+00  1.548478E+00  1.524097E+00  1.500472E+00  1.477568E+00  1.455353E+00  1.433797E+00  1.412869E+00  1.392545E+00
 1.372796E+00  1.353600E+00  1.334934E+00  1.316776E+00  1.299105E+00  1.281902E+00  1.265149E+00  1.248829E+00  1.232924E+00  1.217419E+00
 1.202300E+00  1.187552E+00  1.173161E+00  1.159115E+00  1.145402E+00  1.132009E+00  1.118926E+00  1.106142E+00  1.093647E+00  1.081431E+00
 1.069486E+00  1.057801E+00  1.046370E+00  1.035184E+00  1.024236E+00  1.013519E+00  1.003029E+00  9.927636E-01  9.827263E-01  9.729544E-01
 4.052464E+01  3.830779E+01  3.266720E+01  2.615932E+01  2.112398E+01  1.749509E+01  1.486136E+01  1.289574E+01  1.138302E+01  1.018607E+01
 9.216351E+00  8.415065E+00  7.741923E+00  7.168486E+00  6.674137E+00  6.243573E+00  5.865196E+00  5.530062E+00  5.231157E+00  4.962909E+00
 4.720831E+00  4.501271E+00  4.301227E+00  4.118209E+00  3.950130E+00  3.795233E+00  3.652027E+00  3.519236E+00  3.395763E+00  3.280661E+00
 3.173107E+00  3.072381E+00  2.977854E+00  2.888971E+00  2.805240E+00  2.726226E+00  2.651542E+00  2.580840E+00  2.513812E+00  2.450178E+00
 2.389685E+00  2.332109E+00  2.277241E+00  2.224897E+00  2.174905E+00  2.127110E+00  2.081371E+00  2.037558E+00  1.995552E+00  1.955243E+00
 1.916530E+00  1.879321E+00  1.843529E+00  1.809076E+00  1.775886E+00  1.743893E+00  1.713033E+00  1.683245E+00  1.654476E+00  1.626675E+00
 1.599792E+00  1.573784E+00  1.548607E+00  1.524224E+00  1.500597E+00  1.477692E+00  1.455475E+00  1.433917E+00  1.412988E+00  1.392661E+00
 1.372911E+00  1.353714E+00  1.335046E+00  1.316886E+00  1.299214E+00  1.282010E+00  1.265255E+00  1.248933E+00  1.233027E+00  1.217521E+00
 1.202401E+00  1.187651E+00  1.173259E+00  1.159212E+00  1.145497E+00  1.132104E+00  1.119019E+00  1.106234E+00  1.093738E+00  1.081522E+00
 1.069575E+00  1.057890E+00  1.046457E+00  1.035270E+00  1.024321E+00  1.013604E+00  1.003113E+00  9.928455E-01  9.828049E-01  9.730069E-01
 4.673411E+01  4.164460E+01  3.373051E+01  2.645140E+01  2.120252E+01  1.751691E+01  1.486804E+01  1.289829E+01  1.138437E+01  1.018703E+01
 9.217154E+00  8.415779E+00  7.742574E+00  7.169087E+00  6.674696E+00  6.244095E+00  5.865687E+00  5.530525E+00  5.231595E+00  4.963324E+00
 4.721226E+00  4.501648E+00  4.301587E+00  4.118553E+00  3.950460E+00  3.795551E+00  3.652333E+00  3.519530E+00  3.396047E+00  3.280936E+00
 3.173372E+00  3.072638E+00  2.978103E+00  2.889212E+00  2.805474E+00  2.726454E+00  2.651763E+00  2.581056E+00  2.514022E+00  2.450382E+00
 2.389885E+00  2.332304E+00  2.277432E+00  2.225083E+00  2.175087E+00  2.127288E+00  2.081545E+00  2.037729E+00  1.995719E+00  1.955406E+00
 1.916690E+00  1.879478E+00  1.843684E+00  1.809227E+00  1.776035E+00  1.744039E+00  1.713176E+00  1.683386E+00  1.654615E+00  1.626811E+00
 1.599926E+00  1.573915E+00  1.548737E+00  1.524352E+00  1.500723E+00  1.477815E+00  1.455597E+00  1.434036E+00  1.413106E+00  1.392777E+00
 1.373026E+00  1.353827E+00  1.335157E+00  1.316996E+00  1.299322E+00  1.282117E+00  1.265361E+00  1.249038E+00  1.233130E+00  1.217623E+00
 1.202501E+00  1.187750E+00  1.173357E+00  1.159309E+00  1.145593E+00  1.132198E+00  1.119113E+00  1.106327E+00  1.093830E+00  1.081612E+00
 1.069664E+00  1.057978E+00  1.046545E+00  1.035357E+00  1.024407E+00  1.013688E+00  1.003196E+00  9.929264E-01  9.828812E-01  9.730637E-01
 5.702116E+01  4.694345E+01  3.527996E+01  2.686135E+01  2.131083E+01  1.754647E+01  1.487678E+01  1.290139E+01  1.138587E+01  1.018804E+01
 9.217968E+00  8.416496E+00  7.743225E+00  7.169688E+00  6.675255E+00  6.244618E+00  5.866178E+00  5.530987E+00  5.232033E+00  4.963740E+00
 4.721621E+00  4.502024E+00  4.301947E+00  4.118898E+00  3.950791E+00  3.795868E+00  3.652638E+00  3.519825E+00  3.396331E+00  3.281210E+00
 3.173638E+00  3.072895E+00  2.978352E+00  2.889454E+00  2.805709E+00  2.726682E+00  2.651985E+00  2.581272E+00  2.514232E+00  2.450587E+00
 2.390085E+00  2.332499E+00  2.277622E+00  2.225269E+00  2.175268E+00  2.127466E+00  2.081719E+00  2.037899E+00  1.995886E+00  1.955570E+00
 1.916851E+00  1.879635E+00  1.843838E+00  1.809378E+00  1.776183E+00  1.744185E+00  1.713319E+00  1.683527E+00  1.654753E+00  1.626947E+00
 1.600059E+00  1.574047E+00  1.548866E+00  1.524479E+00  1.500848E+00  1.477939E+00  1.455718E+00  1.434156E+00  1.413224E+00  1.392894E+00
 1.373141E+00  1.353940E+00  1.335269E+00  1.317106E+00  1.299431E+00  1.282224E+00  1.265467E+00  1.249142E+00  1.233233E+00  1.217725E+00
 1.202602E+00  1.187850E+00  1.173455E+00  1.159406E+00  1.145689E+00  1.132293E+00  1.119207E+00  1.106419E+00  1.093921E+00  1.081702E+00
 1.069754E+00  1.058066E+00  1.046632E+00  1.035443E+00  1.024492E+00  1.013772E+00  1.003278E+00  9.930063E-01  9.829561E-01  9.731238E-01
 7.272082E+01  5.458476E+01  3.724351E+01  2.735602E+01  2.143910E+01  1.758108E+01  1.488685E+01  1.290485E+01  1.138747E+01  1.018907E+01
 9.218789E+00  8.417214E+00  7.743878E+00  7.170289E+00  6.675814E+00  6.245141E+00  5.866669E+00  5.531450E+00  5.232470E+00  4.964155E+00
 4.722016E+00  4.502401E+00  4.302307E+00  4.119242E+00  3.951121E+00  3.796186E+00  3.652943E+00  3.520119E+00  3.396615E+00  3.281484E+00
 3.173903E+00  3.073152E+00  2.978601E+00  2.889695E+00  2.805943E+00  2.726910E+00  2.652207E+00  2.581488E+00  2.514443E+00  2.450792E+00
 2.390285E+00  2.332694E+00  2.277812E+00  2.225455E+00  2.175450E+00  2.127644E+00  2.081893E+00  2.038069E+00  1.996052E+00  1.955733E+00
 1.917011E+00  1.879792E+00  1.843992E+00  1.809529E+00  1.776332E+00  1.744331E+00  1.713462E+00  1.683667E+00  1.654891E+00  1.627083E+00
 1.600193E+00  1.574178E+00  1.548996E+00  1.524606E+00  1.500973E+00  1.478062E+00  1.455840E+00  1.434276E+00  1.413342E+00  1.393010E+00
 1.373255E+00  1.354053E+00  1.335381E+00  1.317216E+00  1.299539E+00  1.282331E+00  1.265572E+00  1.249246E+00  1.233336E+00  1.217827E+00
 1.202702E+00  1.187949E+00  1.173553E+00  1.159503E+00  1.145785E+00  1.132387E+00  1.119300E+00  1.106512E+00  1.094013E+00  1.081793E+00
 1.069843E+00  1.058155E+00  1.046719E+00  1.035529E+00  1.024577E+00  1.013856E+00  1.003360E+00  9.930856E-01  9.830300E-01  9.731862E-01
 9.591983E+01  6.512212E+01  3.949014E+01  2.789101E+01  2.157530E+01  1.761756E+01  1.489739E+01  1.290843E+01  1.138911E+01  1.019011E+01
 9.219612E+00  8.417933E+00  7.744530E+00  7.170890E+00  6.676373E+00  6.245663E+00  5.867159E+00  5.531912E+00  5.232908E+00  4.964569E+00
 4.722410E+00  4.502777E+00  4.302666E+00  4.119586E+00  3.951451E+00  3.796503E+00  3.653249E+00  3.520413E+00  3.396899E+00  3.281758E+00
 3.174168E+00  3.073409E+00  2.978850E+00  2.889937E+00  2.806178E+00  2.727137E+00  2.652428E+00  2.581703E+00  2.514653E+00  2.450997E+00
 2.390484E+00  2.332888E+00  2.278003E+00  2.225641E+00  2.175632E+00  2.127821E+00  2.082067E+00  2.038239E+00  1.996219E+00  1.955896E+00
 1.917171E+00  1.879949E+00  1.844146E+00  1.809681E+00  1.776480E+00  1.744476E+00  1.713605E+00  1.683808E+00  1.655030E+00  1.627218E+00
 1.600327E+00  1.574310E+00  1.549125E+00  1.524734E+00  1.501099E+00  1.478186E+00  1.455961E+00  1.434396E+00  1.413460E+00  1.393127E+00
 1.373370E+00  1.354166E+00  1.335492E+00  1.317326E+00  1.299648E+00  1.282438E+00  1.265678E+00  1.249351E+00  1.233439E+00  1.217928E+00
 1.202803E+00  1.188048E+00  1.173651E+00  1.159600E+00  1.145880E+00  1.132482E+00  1.119393E+00  1.106604E+00  1.094104E+00  1.081883E+00
 1.069932E+00  1.058243E+00  1.046807E+00  1.035615E+00  1.024662E+00  1.013939E+00  1.003442E+00  9.931642E-01  9.831034E-01  9.732505E-01
 1.296538E+02  7.928216E+01  4.179152E+01  2.841253E+01  2.170616E+01  1.765245E+01  1.490749E+01  1.291189E+01  1.139071E+01  1.019114E+01
 9.220433E+00  8.418651E+00  7.745181E+00  7.171491E+00  6.676931E+00  6.246185E+00  5.867650E+00  5.532375E+00  5.233345E+00  4.964984E+00
 4.722805E+00  4.503153E+00  4.303026E+00  4.119930E+00  3.951781E+00  3.796820E+00  3.653554E+00  3.520707E+00  3.397182E+00  3.282032E+00
 3.174433E+00  3.073665E+00  2.979099E+00  2.890178E+00  2.806412E+00  2.727365E+00  2.652650E+00  2.581919E+00  2.514863E+00  2.451201E+00
 2.390684E+00  2.333083E+00  2.278193E+00  2.225826E+00  2.175813E+00  2.127999E+00  2.082241E+00  2.038409E+00  1.996386E+00  1.956060E+00
 1.917331E+00  1.880106E+00  1.844300E+00  1.809832E+00  1.776628E+00  1.744622E+00  1.713748E+00  1.683949E+00  1.655168E+00  1.627354E+00
 1.600460E+00  1.574441E+00  1.549254E+00  1.524861E+00  1.501224E+00  1.478309E+00  1.456083E+00  1.434516E+00  1.413578E+00  1.393243E+00
 1.373485E+00  1.354279E+00  1.335604E+00  1.317436E+00  1.299756E+00  1.282545E+00  1.265784E+00  1.249455E+00  1.233542E+00  1.218030E+00
 1.202903E+00  1.188147E+00  1.173749E+00  1.159696E+00  1.145976E+00  1.132576E+00  1.119487E+00  1.106696E+00  1.094195E+00  1.081973E+00
 1.070022E+00  1.058331E+00  1.046894E+00  1.035702E+00  1.024747E+00  1.014022E+00  1.003523E+00  9.932424E-01  9.831765E-01  9.733161E-01
 1.517269E+02  8.913091E+01  4.376368E+01  2.886288E+01  2.181859E+01  1.768245E+01  1.491628E+01  1.291500E+01  1.139221E+01  1.019214E+01
 9.221246E+00  8.419366E+00  7.745832E+00  7.172091E+00  6.677490E+00  6.246707E+00  5.868140E+00  5.532837E+00  5.233782E+00  4.965399E+00
 4.723199E+00  4.503529E+00  4.303385E+00  4.120274E+00  3.952111E+00  3.797137E+00  3.653859E+00  3.521001E+00  3.397466E+00  3.282306E+00
 3.174698E+00  3.073922E+00  2.979348E+00  2.890419E+00  2.806646E+00  2.727593E+00  2.652871E+00  2.582134E+00  2.515072E+00  2.451406E+00
 2.390883E+00  2.333278E+00  2.278383E+00  2.226012E+00  2.175995E+00  2.128176E+00  2.082415E+00  2.038580E+00  1.996552E+00  1.956223E+00
 1.917491E+00  1.880263E+00  1.844453E+00  1.809983E+00  1.776777E+00  1.744767E+00  1.713891E+00  1.684089E+00  1.655306E+00  1.627490E+00
 1.600594E+00  1.574572E+00  1.549384E+00  1.524988E+00  1.501349E+00  1.478432E+00  1.456204E+00  1.434635E+00  1.413696E+00  1.393359E+00
 1.373599E+00  1.354392E+00  1.335715E+00  1.317546E+00  1.299865E+00  1.282652E+00  1.265889E+00  1.249559E+00  1.233645E+00  1.218132E+00
 1.203003E+00  1.188246E+00  1.173847E+00  1.159793E+00  1.146071E+00  1.132671E+00  1.119580E+00  1.106789E+00  1.094286E+00  1.082064E+00
 1.070111E+00  1.058419E+00  1.046981E+00  1.035788E+00  1.024831E+00  1.014106E+00  1.003604E+00  9.933202E-01  9.832493E-01  9.733826E-01
 1.649773E+02  9.532555E+01  4.518030E+01  2.919297E+01  2.190120E+01  1.770471E+01  1.492302E+01  1.291755E+01  1.139357E+01  1.019310E+01
 9.222047E+00  8.420079E+00  7.746482E+00  7.172691E+00  6.678048E+00  6.247229E+00  5.868630E+00  5.533299E+00  5.234219E+00  4.965813E+00
 4.723593E+00  4.503905E+00  4.303744E+00  4.120618E+00  3.952441E+00  3.797454E+00  3.654164E+00  3.521294E+00  3.397749E+00  3.282580E+00
 3.174963E+00  3.074178E+00  2.979596E+00  2.890660E+00  2.806880E+00  2.727820E+00  2.653092E+00  2.582350E+00  2.515282E+00  2.451610E+00
 2.391083E+00  2.333472E+00  2.278573E+00  2.226198E+00  2.176176E+00  2.128354E+00  2.082588E+00  2.038750E+00  1.996719E+00  1.956386E+00
 1.917651E+00  1.880420E+00  1.844607E+00  1.810134E+00  1.776925E+00  1.744913E+00  1.714034E+00  1.684230E+00  1.655444E+00  1.627626E+00
 1.600727E+00  1.574704E+00  1.549513E+00  1.525115E+00  1.501475E+00  1.478556E+00  1.456326E+00  1.434755E+00  1.413814E+00  1.393475E+00
 1.373714E+00  1.354505E+00  1.335826E+00  1.317656E+00  1.299973E+00  1.282759E+00  1.265995E+00  1.249663E+00  1.233748E+00  1.218233E+00
 1.203104E+00  1.188345E+00  1.173945E+00  1.159890E+00  1.146167E+00  1.132765E+00  1.119674E+00  1.106881E+00  1.094378E+00  1.082154E+00
 1.070200E+00  1.058508E+00  1.047068E+00  1.035873E+00  1.024916E+00  1.014189E+00  1.003685E+00  9.933978E-01  9.833221E-01  9.734497E-01
 1.711927E+02  9.831766E+01  4.591777E+01  2.936818E+01  2.194565E+01  1.771715E+01  1.492716E+01  1.291941E+01  1.139473E+01  1.019401E+01
 9.222834E+00  8.420787E+00  7.747130E+00  7.173291E+00  6.678605E+00  6.247750E+00  5.869120E+00  5.533760E+00  5.234656E+00  4.966228E+00
 4.723987E+00  4.504281E+00  4.304103E+00  4.120962E+00  3.952770E+00  3.797770E+00  3.654468E+00  3.521588E+00  3.398033E+00  3.282854E+00
 3.175228E+00  3.074435E+00  2.979845E+00  2.890901E+00  2.807114E+00  2.728048E+00  2.653313E+00  2.582565E+00  2.515492E+00  2.451815E+00
 2.391282E+00  2.333667E+00  2.278763E+00  2.226383E+00  2.176358E+00  2.128531E+00  2.082762E+00  2.038920E+00  1.996885E+00  1.956549E+00
 1.917811E+00  1.880577E+00  1.844761E+00  1.810284E+00  1.777073E+00  1.745058E+00  1.714177E+00  1.684370E+00  1.655582E+00  1.627761E+00
 1.600861E+00  1.574835E+00  1.549642E+00  1.525243E+00  1.501600E+00  1.478679E+00  1.456447E+00  1.434874E+00  1.413932E+00  1.393591E+00
 1.373828E+00  1.354618E+00  1.335938E+00  1.317766E+00  1.300082E+00  1.282866E+00  1.266100E+00  1.249768E+00  1.233851E+00  1.218335E+00
 1.203204E+00  1.188445E+00  1.174043E+00  1.159986E+00  1.146263E+00  1.132860E+00  1.119767E+00  1.106973E+00  1.094469E+00  1.082244E+00
 1.070289E+00  1.058596E+00  1.047155E+00  1.035959E+00  1.025001E+00  1.014272E+00  1.003765E+00  9.934752E-01  9.833948E-01  9.735172E-01
 1.711968E+02  9.832166E+01  4.592111E+01  2.937065E+01  2.194751E+01  1.771864E+01  1.492841E+01  1.292049E+01  1.139569E+01  1.019487E+01
 9.223605E+00  8.421490E+00  7.747777E+00  7.173889E+00  6.679163E+00  6.248272E+00  5.869609E+00  5.534222E+00  5.235092E+00  4.966642E+00
 4.724381E+00  4.504656E+00  4.304462E+00  4.121305E+00  3.953100E+00  3.798087E+00  3.654773E+00  3.521882E+00  3.398316E+00  3.283127E+00
 3.175492E+00  3.074691E+00  2.980093E+00  2.891142E+00  2.807348E+00  2.728275E+00  2.653535E+00  2.582780E+00  2.515701E+00  2.452019E+00
 2.391482E+00  2.333861E+00  2.278953E+00  2.226569E+00  2.176539E+00  2.128709E+00  2.082935E+00  2.039089E+00  1.997052E+00  1.956712E+00
 1.917971E+00  1.880733E+00  1.844915E+00  1.810435E+00  1.777221E+00  1.745204E+00  1.714320E+00  1.684510E+00  1.655720E+00  1.627897E+00
 1.600994E+00  1.574966E+00  1.549771E+00  1.525370E+00  1.501725E+00  1.478802E+00  1.456569E+00  1.434994E+00  1.414049E+00  1.393707E+00
 1.373943E+00  1.354731E+00  1.336049E+00  1.317875E+00  1.300190E+00  1.282973E+00  1.266206E+00  1.249872E+00  1.233954E+00  1.218436E+00
 1.203304E+00  1.188544E+00  1.174141E+00  1.160083E+00  1.146358E+00  1.132954E+00  1.119860E+00  1.107066E+00  1.094560E+00  1.082334E+00
 1.070378E+00  1.058684E+00  1.047242E+00  1.036045E+00  1.025085E+00  1.014355E+00  1.003846E+00  9.935526E-01  9.834674E-01  9.735848E-01
 1.649972E+02  9.534161E+01  4.519140E+01  2.920052E+01  2.190680E+01  1.770920E+01  1.492678E+01  1.292080E+01  1.139643E+01  1.019566E+01
 9.224360E+00  8.422189E+00  7.748422E+00  7.174488E+00  6.679720E+00  6.248793E+00  5.870099E+00  5.534683E+00  5.235529E+00  4.967056E+00
 4.724775E+00  4.505032E+00  4.304821E+00  4.121649E+00  3.953429E+00  3.798403E+00  3.655077E+00  3.522175E+00  3.398599E+00  3.283401E+00
 3.175757E+00  3.074947E+00  2.980341E+00  2.891383E+00  2.807582E+00  2.728502E+00  2.653756E+00  2.582995E+00  2.515911E+00  2.452223E+00
 2.391681E+00  2.334056E+00  2.279143E+00  2.226754E+00  2.176720E+00  2.128886E+00  2.083109E+00  2.039259E+00  1.997218E+00  1.956875E+00
 1.918130E+00  1.880890E+00  1.845068E+00  1.810586E+00  1.777369E+00  1.745349E+00  1.714463E+00  1.684651E+00  1.655858E+00  1.628033E+00
 1.601127E+00  1.575097E+00  1.549900E+00  1.525497E+00  1.501850E+00  1.478925E+00  1.456690E+00  1.435113E+00  1.414167E+00  1.393824E+00
 1.374057E+00  1.354844E+00  1.336160E+00  1.317985E+00  1.300298E+00  1.283080E+00  1.266311E+00  1.249976E+00  1.234056E+00  1.218538E+00
 1.203404E+00  1.188642E+00  1.174239E+00  1.160180E+00  1.146453E+00  1.133048E+00  1.119953E+00  1.107158E+00  1.094651E+00  1.082424E+00
 1.070467E+00  1.058772E+00  1.047329E+00  1.036131E+00  1.025170E+00  1.014438E+00  1.003927E+00  9.936300E-01  9.835400E-01  9.736522E-01
 1.517604E+02  8.915768E+01  4.378205E+01  2.887536E+01  2.182788E+01  1.768992E+01  1.492255E+01  1.292041E+01  1.139698E+01  1.019640E+01
 9.225101E+00  8.422884E+00  7.749067E+00  7.175085E+00  6.680276E+00  6.249314E+00  5.870588E+00  5.535145E+00  5.235965E+00  4.967470E+00
 4.725169E+00  4.505407E+00  4.305179E+00  4.121992E+00  3.953759E+00  3.798720E+00  3.655382E+00  3.522468E+00  3.398882E+00  3.283674E+00
 3.176021E+00  3.075203E+00  2.980589E+00  2.891624E+00  2.807816E+00  2.728730E+00  2.653977E+00  2.583210E+00  2.516120E+00  2.452427E+00
 2.391880E+00  2.334250E+00  2.279332E+00  2.226940E+00  2.176902E+00  2.129063E+00  2.083282E+00  2.039429E+00  1.997384E+00  1.957038E+00
 1.918290E+00  1.881047E+00  1.845222E+00  1.810737E+00  1.777517E+00  1.745494E+00  1.714605E+00  1.684791E+00  1.655995E+00  1.628168E+00
 1.601261E+00  1.575228E+00  1.550029E+00  1.525624E+00  1.501975E+00  1.479048E+00  1.456811E+00  1.435233E+00  1.414285E+00  1.393940E+00
 1.374171E+00  1.354956E+00  1.336271E+00  1.318095E+00  1.300406E+00  1.283186E+00  1.266417E+00  1.250080E+00  1.234159E+00  1.218639E+00
 1.203504E+00  1.188741E+00  1.174336E+00  1.160276E+00  1.146549E+00  1.133143E+00  1.120047E+00  1.107250E+00  1.094742E+00  1.082514E+00
 1.070556E+00  1.058860E+00  1.047416E+00  1.036217E+00  1.025254E+00  1.014520E+00  1.004007E+00  9.937074E-01  9.836126E-01  9.737192E-01
 1.296968E+02  7.931746E+01  4.181638E+01  2.842969E+01  2.171908E+01  1.766287E+01  1.491626E+01  1.291947E+01  1.139739E+01  1.019711E+01
 9.225829E+00  8.423575E+00  7.749710E+00  7.175683E+00  6.680833E+00  6.249834E+00  5.871077E+00  5.535606E+00  5.236401E+00  4.967883E+00
 4.725562E+00  4.505782E+00  4.305538E+00  4.122335E+00  3.954088E+00  3.799036E+00  3.655686E+00  3.522762E+00  3.399165E+00  3.283948E+00
 3.176286E+00  3.075459E+00  2.980837E+00  2.891865E+00  2.808050E+00  2.728957E+00  2.654197E+00  2.583425E+00  2.516330E+00  2.452632E+00
 2.392079E+00  2.334444E+00  2.279522E+00  2.227125E+00  2.177083E+00  2.129240E+00  2.083456E+00  2.039599E+00  1.997550E+00  1.957201E+00
 1.918450E+00  1.881203E+00  1.845376E+00  1.810887E+00  1.777665E+00  1.745640E+00  1.714748E+00  1.684931E+00  1.656133E+00  1.628304E+00
 1.601394E+00  1.575359E+00  1.550158E+00  1.525751E+00  1.502100E+00  1.479171E+00  1.456932E+00  1.435352E+00  1.414402E+00  1.394056E+00
 1.374286E+00  1.355069E+00  1.336383E+00  1.318205E+00  1.300515E+00  1.283293E+00  1.266522E+00  1.250184E+00  1.234262E+00  1.218740E+00
 1.203605E+00  1.188840E+00  1.174434E+00  1.160373E+00  1.146644E+00  1.133237E+00  1.120140E+00  1.107342E+00  1.094833E+00  1.082604E+00
 1.070645E+00  1.058948E+00  1.047503E+00  1.036303E+00  1.025339E+00  1.014603E+00  1.004088E+00  9.937850E-01  9.836853E-01  9.737856E-01
 9.598036E+01  6.516817E+01  3.952094E+01  2.791256E+01  2.159177E+01  1.763092E+01  1.490866E+01  1.291817E+01  1.139769E+01  1.019778E+01
 9.226551E+00  8.424264E+00  7.750352E+00  7.176280E+00  6.681389E+00  6.250355E+00  5.871566E+00  5.536067E+00  5.236837E+00  4.968297E+00