# vtk DataFile Version 2.0
PFLOTRAN output
ASCII
DATASET UNSTRUCTURED_GRID
POINTS          252 float
 0.000000E+00  0.000000E+00  0.000000E+00
 1.270000E-03  0.000000E+00  0.000000E+00
 2.540000E-03  0.000000E+00  0.000000E+00
 3.810000E-03  0.000000E+00  0.000000E+00
 5.080000E-03  0.000000E+00  0.000000E+00
 6.350000E-03  0.000000E+00  0.000000E+00
 0.000000E+00  1.000000E+00  0.000000E+00
 1.270000E-03  1.000000E+00  0.000000E+00
 2.540000E-03  1.000000E+00  0.000000E+00
 3.810000E-03  1.000000E+00  0.000000E+00
 5.080000E-03  1.000000E+00  0.000000E+00
 6.350000E-03  1.000000E+00  0.000000E+00
 0.000000E+00  0.000000E+00  7.580000E-03
 1.270000E-03  0.000000E+00  7.580000E-03
 2.540000E-03  0.000000E+00  7.580000E-03
 3.810000E-03  0.000000E+00  7.580000E-03
 5.080000E-03  0.000000E+00  7.580000E-03
 6.350000E-03  0.000000E+00  7.580000E-03
 0.000000E+00  1.000000E+00  7.580000E-03
 1.270000E-03  1.000000E+00  7.580000E-03
 2.540000E-03  1.000000E+00  7.580000E-03
 3.810000E-03  1.000000E+00  7.580000E-03
 5.080000E-03  1.000000E+00  7.580000E-03
 6.350000E-03  1.000000E+00  7.580000E-03
 0.000000E+00  0.000000E+00  1.516000E-02
 1.270000E-03  0.000000E+00  1.516000E-02
 2.540000E-03  0.000000E+00  1.516000E-02
 3.810000E-03  0.000000E+00  1.516000E-02
 5.080000E-03  0.000000E+00  1.516000E-02
 6.350000E-03  0.000000E+00  1.516000E-02
 0.000000E+00  1.000000E+00  1.516000E-02
 1.270000E-03  1.000000E+00  1.516000E-02
 2.540000E-03  1.000000E+00  1.516000E-02
 3.810000E-03  1.000000E+00  1.516000E-02
 5.080000E-03  1.000000E+00  1.516000E-02
 6.350000E-03  1.000000E+00  1.516000E-02
 0.000000E+00  0.000000E+00  2.274000E-02
 1.270000E-03  0.000000E+00  2.274000E-02
 2.540000E-03  0.000000E+00  2.274000E-02
 3.810000E-03  0.000000E+00  2.274000E-02
 5.080000E-03  0.000000E+00  2.274000E-02
 6.350000E-03  0.000000E+00  2.274000E-02
 0.000000E+00  1.000000E+00  2.274000E-02
 1.270000E-03  1.000000E+00  2.274000E-02
 2.540000E-03  1.000000E+00  2.274000E-02
 3.810000E-03  1.000000E+00  2.274000E-02
 5.080000E-03  1.000000E+00  2.274000E-02
 6.350000E-03  1.000000E+00  2.274000E-02
 0.000000E+00  0.000000E+00  3.032000E-02
 1.270000E-03  0.000000E+00  3.032000E-02
 2.540000E-03  0.000000E+00  3.032000E-02
 3.810000E-03  0.000000E+00  3.032000E-02
 5.080000E-03  0.000000E+00  3.032000E-02
 6.350000E-03  0.000000E+00  3.032000E-02
 0.000000E+00  1.000000E+00  3.032000E-02
 1.270000E-03  1.000000E+00  3.032000E-02
 2.540000E-03  1.000000E+00  3.032000E-02
 3.810000E-03  1.000000E+00  3.032000E-02
 5.080000E-03  1.000000E+00  3.032000E-02
 6.350000E-03  1.000000E+00  3.032000E-02
 0.000000E+00  0.000000E+00  3.790000E-02
 1.270000E-03  0.000000E+00  3.790000E-02
 2.540000E-03  0.000000E+00  3.790000E-02
 3.810000E-03  0.000000E+00  3.790000E-02
 5.080000E-03  0.000000E+00  3.790000E-02
 6.350000E-03  0.000000E+00  3.790000E-02
 0.000000E+00  1.000000E+00  3.790000E-02
 1.270000E-03  1.000000E+00  3.790000E-02
 2.540000E-03  1.000000E+00  3.790000E-02
 3.810000E-03  1.000000E+00  3.790000E-02
 5.080000E-03  1.000000E+00  3.790000E-02
 6.350000E-03  1.000000E+00  3.790000E-02
 0.000000E+00  0.000000E+00  4.548000E-02
 1.270000E-03  0.000000E+00  4.548000E-02
 2.540000E-03  0.000000E+00  4.548000E-02
 3.810000E-03  0.000000E+00  4.548000E-02
 5.080000E-03  0.000000E+00  4.548000E-02
 6.350000E-03  0.000000E+00  4.548000E-02
 0.000000E+00  1.000000E+00  4.548000E-02
 1.270000E-03  1.000000E+00  4.548000E-02
 2.540000E-03  1.000000E+00  4.548000E-02
 3.810000E-03  1.000000E+00  4.548000E-02
 5.080000E-03  1.000000E+00  4.548000E-02
 6.350000E-03  1.000000E+00  4.548000E-02
 0.000000E+00  0.000000E+00  5.306000E-02
 1.270000E-03  0.000000E+00  5.306000E-02
 2.540000E-03  0.000000E+00  5.306000E-02
 3.810000E-03  0.000000E+00  5.306000E-02
 5.080000E-03  0.000000E+00  5.306000E-02
 6.350000E-03  0.000000E+00  5.306000E-02
 0.000000E+00  1.000000E+00  5.306000E-02
 1.270000E-03  1.000000E+00  5.306000E-02
 2.540000E-03  1.000000E+00  5.306000E-02
 3.810000E-03  1.000000E+00  5.306000E-02
 5.080000E-03  1.000000E+00  5.306000E-02
 6.350000E-03  1.000000E+00  5.306000E-02
 0.000000E+00  0.000000E+00  6.064000E-02
 1.270000E-03  0.000000E+00  6.064000E-02
 2.540000E-03  0.000000E+00  6.064000E-02
 3.810000E-03  0.000000E+00  6.064000E-02
 5.080000E-03  0.000000E+00  6.064000E-02
 6.350000E-03  0.000000E+00  6.064000E-02
 0.000000E+00  1.000000E+00  6.064000E-02
 1.270000E-03  1.000000E+00  6.064000E-02
 2.540000E-03  1.000000E+00  6.064000E-02
 3.810000E-03  1.000000E+00  6.064000E-02
 5.080000E-03  1.000000E+00  6.064000E-02
 6.350000E-03  1.000000E+00  6.064000E-02
 0.000000E+00  0.000000E+00  6.822000E-02
 1.270000E-03  0.000000E+00  6.822000E-02
 2.540000E-03  0.000000E+00  6.822000E-02
 3.810000E-03  0.000000E+00  6.822000E-02
 5.080000E-03  0.000000E+00  6.822000E-02
 6.350000E-03  0.000000E+00  6.822000E-02
 0.000000E+00  1.000000E+00  6.822000E-02
 1.270000E-03  1.000000E+00  6.822000E-02
 2.540000E-03  1.000000E+00  6.822000E-02
 3.810000E-03  1.000000E+00  6.822000E-02
 5.080000E-03  1.000000E+00  6.822000E-02
 6.350000E-03  1.000000E+00  6.822000E-02
 0.000000E+00  0.000000E+00  7.580000E-02
 1.270000E-03  0.000000E+00  7.580000E-02
 2.540000E-03  0.000000E+00  7.580000E-02
 3.810000E-03  0.000000E+00  7.580000E-02
 5.080000E-03  0.000000E+00  7.580000E-02
 6.350000E-03  0.000000E+00  7.580000E-02
 0.000000E+00  1.000000E+00  7.580000E-02
 1.270000E-03  1.000000E+00  7.580000E-02
 2.540000E-03  1.000000E+00  7.580000E-02
 3.810000E-03  1.000000E+00  7.580000E-02
 5.080000E-03  1.000000E+00  7.580000E-02
 6.350000E-03  1.000000E+00  7.580000E-02
 0.000000E+00  0.000000E+00  8.338000E-02
 1.270000E-03  0.000000E+00  8.338000E-02
 2.540000E-03  0.000000E+00  8.338000E-02
 3.810000E-03  0.000000E+00  8.338000E-02
 5.080000E-03  0.000000E+00  8.338000E-02
 6.350000E-03  0.000000E+00  8.338000E-02
 0.000000E+00  1.000000E+00  8.338000E-02
 1.270000E-03  1.000000E+00  8.338000E-02
 2.540000E-03  1.000000E+00  8.338000E-02
 3.810000E-03  1.000000E+00  8.338000E-02
 5.080000E-03  1.000000E+00  8.338000E-02
 6.350000E-03  1.000000E+00  8.338000E-02
 0.000000E+00  0.000000E+00  9.096000E-02
 1.270000E-03  0.000000E+00  9.096000E-02
 2.540000E-03  0.000000E+00  9.096000E-02
 3.810000E-03  0.000000E+00  9.096000E-02
 5.080000E-03  0.000000E+00  9.096000E-02
 6.350000E-03  0.000000E+00  9.096000E-02
 0.000000E+00  1.000000E+00  9.096000E-02
 1.270000E-03  1.000000E+00  9.096000E-02
 2.540000E-03  1.000000E+00  9.096000E-02
 3.810000E-03  1.000000E+00  9.096000E-02
 5.080000E-03  1.000000E+00  9.096000E-02
 6.350000E-03  1.000000E+00  9.096000E-02
 0.000000E+00  0.000000E+00  9.854000E-02
 1.270000E-03  0.000000E+00  9.854000E-02
 2.540000E-03  0.000000E+00  9.854000E-02
 3.810000E-03  0.000000E+00  9.854000E-02
 5.080000E-03  0.000000E+00  9.854000E-02
 6.350000E-03  0.000000E+00  9.854000E-02
 0.000000E+00  1.000000E+00  9.854000E-02
 1.270000E-03  1.000000E+00  9.854000E-02
 2.540000E-03  1.000000E+00  9.854000E-02
 3.810000E-03  1.000000E+00  9.854000E-02
 5.080000E-03  1.000000E+00  9.854000E-02
 6.350000E-03  1.000000E+00  9.854000E-02
 0.000000E+00  0.000000E+00  1.061200E-01
 1.270000E-03  0.000000E+00  1.061200E-01
 2.540000E-03  0.000000E+00  1.061200E-01
 3.810000E-03  0.000000E+00  1.061200E-01
 5.080000E-03  0.000000E+00  1.061200E-01
 6.350000E-03  0.000000E+00  1.061200E-01
 0.000000E+00  1.000000E+00  1.061200E-01
 1.270000E-03  1.000000E+00  1.061200E-01
 2.540000E-03  1.000000E+00  1.061200E-01
 3.810000E-03  1.000000E+00  1.061200E-01
 5.080000E-03  1.000000E+00  1.061200E-01
 6.350000E-03  1.000000E+00  1.061200E-01
 0.000000E+00  0.000000E+00  1.137000E-01
 1.270000E-03  0.000000E+00  1.137000E-01
 2.540000E-03  0.000000E+00  1.137000E-01
 3.810000E-03  0.000000E+00  1.137000E-01
 5.080000E-03  0.000000E+00  1.137000E-01
 6.350000E-03  0.000000E+00  1.137000E-01
 0.000000E+00  1.000000E+00  1.137000E-01
 1.270000E-03  1.000000E+00  1.137000E-01
 2.540000E-03  1.000000E+00  1.137000E-01
 3.810000E-03  1.000000E+00  1.137000E-01
 5.080000E-03  1.000000E+00  1.137000E-01
 6.350000E-03  1.000000E+00  1.137000E-01
 0.000000E+00  0.000000E+00  1.212800E-01
 1.270000E-03  0.000000E+00  1.212800E-01
 2.540000E-03  0.000000E+00  1.212800E-01
 3.810000E-03  0.000000E+00  1.212800E-01
 5.080000E-03  0.000000E+00  1.212800E-01
 6.350000E-03  0.000000E+00  1.212800E-01
 0.000000E+00  1.000000E+00  1.212800E-01
 1.270000E-03  1.000000E+00  1.212800E-01
 2.540000E-03  1.000000E+00  1.212800E-01
 3.810000E-03  1.000000E+00  1.212800E-01
 5.080000E-03  1.000000E+00  1.212800E-01
 6.350000E-03  1.000000E+00  1.212800E-01
 0.000000E+00  0.000000E+00  1.288600E-01
 1.270000E-03  0.000000E+00  1.288600E-01
 2.540000E-03  0.000000E+00  1.288600E-01
 3.810000E-03  0.000000E+00  1.288600E-01
 5.080000E-03  0.000000E+00  1.288600E-01
 6.350000E-03  0.000000E+00  1.288600E-01
 0.000000E+00  1.000000E+00  1.288600E-01
 1.270000E-03  1.000000E+00  1.288600E-01
 2.540000E-03  1.000000E+00  1.288600E-01
 3.810000E-03  1.000000E+00  1.288600E-01
 5.080000E-03  1.000000E+00  1.288600E-01
 6.350000E-03  1.000000E+00  1.288600E-01
 0.000000E+00  0.000000E+00  1.364400E-01
 1.270000E-03  0.000000E+00  1.364400E-01
 2.540000E-03  0.000000E+00  1.364400E-01
 3.810000E-03  0.000000E+00  1.364400E-01
 5.080000E-03  0.000000E+00  1.364400E-01
 6.350000E-03  0.000000E+00  1.364400E-01
 0.000000E+00  1.000000E+00  1.364400E-01
 1.270000E-03  1.000000E+00  1.364400E-01
 2.540000E-03  1.000000E+00  1.364400E-01
 3.810000E-03  1.000000E+00  1.364400E-01
 5.080000E-03  1.000000E+00  1.364400E-01
 6.350000E-03  1.000000E+00  1.364400E-01
 0.000000E+00  0.000000E+00  1.440200E-01
 1.270000E-03  0.000000E+00  1.440200E-01
 2.540000E-03  0.000000E+00  1.440200E-01
 3.810000E-03  0.000000E+00  1.440200E-01
 5.080000E-03  0.000000E+00  1.440200E-01
 6.350000E-03  0.000000E+00  1.440200E-01
 0.000000E+00  1.000000E+00  1.440200E-01
 1.270000E-03  1.000000E+00  1.440200E-01
 2.540000E-03  1.000000E+00  1.440200E-01
 3.810000E-03  1.000000E+00  1.440200E-01
 5.080000E-03  1.000000E+00  1.440200E-01
 6.350000E-03  1.000000E+00  1.440200E-01
 0.000000E+00  0.000000E+00  1.516000E-01
 1.270000E-03  0.000000E+00  1.516000E-01
 2.540000E-03  0.000000E+00  1.516000E-01
 3.810000E-03  0.000000E+00  1.516000E-01
 5.080000E-03  0.000000E+00  1.516000E-01
 6.350000E-03  0.000000E+00  1.516000E-01
 0.000000E+00  1.000000E+00  1.516000E-01
 1.270000E-03  1.000000E+00  1.516000E-01
 2.540000E-03  1.000000E+00  1.516000E-01
 3.810000E-03  1.000000E+00  1.516000E-01
 5.080000E-03  1.000000E+00  1.516000E-01
 6.350000E-03  1.000000E+00  1.516000E-01
CELLS          100          900
8        0        1        7        6       12       13       19       18
8        1        2        8        7       13       14       20       19
8        2        3        9        8       14       15       21       20
8        3        4       10        9       15       16       22       21
8        4        5       11       10       16       17       23       22
8       12       13       19       18       24       25       31       30
8       13       14       20       19       25       26       32       31
8       14       15       21       20       26       27       33       32
8       15       16       22       21       27       28       34       33
8       16       17       23       22       28       29       35       34
8       24       25       31       30       36       37       43       42
8       25       26       32       31       37       38       44       43
8       26       27       33       32       38       39       45       44
8       27       28       34       33       39       40       46       45
8       28       29       35       34       40       41       47       46
8       36       37       43       42       48       49       55       54
8       37       38       44       43       49       50       56       55
8       38       39       45       44       50       51       57       56
8       39       40       46       45       51       52       58       57
8       40       41       47       46       52       53       59       58
8       48       49       55       54       60       61       67       66
8       49       50       56       55       61       62       68       67
8       50       51       57       56       62       63       69       68
8       51       52       58       57       63       64       70       69
8       52       53       59       58       64       65       71       70
8       60       61       67       66       72       73       79       78
8       61       62       68       67       73       74       80       79
8       62       63       69       68       74       75       81       80
8       63       64       70       69       75       76       82       81
8       64       65       71       70       76       77       83       82
8       72       73       79       78       84       85       91       90
8       73       74       80       79       85       86       92       91
8       74       75       81       80       86       87       93       92
8       75       76       82       81       87       88       94       93
8       76       77       83       82       88       89       95       94
8       84       85       91       90       96       97      103      102
8       85       86       92       91       97       98      104      103
8       86       87       93       92       98       99      105      104
8       87       88       94       93       99      100      106      105
8       88       89       95       94      100      101      107      106
8       96       97      103      102      108      109      115      114
8       97       98      104      103      109      110      116      115
8       98       99      105      104      110      111      117      116
8       99      100      106      105      111      112      118      117
8      100      101      107      106      112      113      119      118
8      108      109      115      114      120      121      127      126
8      109      110      116      115      121      122      128      127
8      110      111      117      116      122      123      129      128
8      111      112      118      117      123      124      130      129
8      112      113      119      118      124      125      131      130
8      120      121      127      126      132      133      139      138
8      121      122      128      127      133      134      140      139
8      122      123      129      128      134      135      141      140
8      123      124      130      129      135      136      142      141
8      124      125      131      130      136      137      143      142
8      132      133      139      138      144      145      151      150
8      133      134      140      139      145      146      152      151
8      134      135      141      140      146      147      153      152
8      135      136      142      141      147      148      154      153
8      136      137      143      142      148      149      155      154
8      144      145      151      150      156      157      163      162
8      145      146      152      151      157      158      164      163
8      146      147      153      152      158      159      165      164
8      147      148      154      153      159      160      166      165
8      148      149      155      154      160      161      167      166
8      156      157      163      162      168      169      175      174
8      157      158      164      163      169      170      176      175
8      158      159      165      164      170      171      177      176
8      159      160      166      165      171      172      178      177
8      160      161      167      166      172      173      179      178
8      168      169      175      174      180      181      187      186
8      169      170      176      175      181      182      188      187
8      170      171      177      176      182      183      189      188
8      171      172      178      177      183      184      190      189
8      172      173      179      178      184      185      191      190
8      180      181      187      186      192      193      199      198
8      181      182      188      187      193      194      200      199
8      182      183      189      188      194      195      201      200
8      183      184      190      189      195      196      202      201
8      184      185      191      190      196      197      203      202
8      192      193      199      198      204      205      211      210
8      193      194      200      199      205      206      212      211
8      194      195      201      200      206      207      213      212
8      195      196      202      201      207      208      214      213
8      196      197      203      202      208      209      215      214
8      204      205      211      210      216      217      223      222
8      205      206      212      211      217      218      224      223
8      206      207      213      212      218      219      225      224
8      207      208      214      213      219      220      226      225
8      208      209      215      214      220      221      227      226
8      216      217      223      222      228      229      235      234
8      217      218      224      223      229      230      236      235
8      218      219      225      224      230      231      237      236
8      219      220      226      225      231      232      238      237
8      220      221      227      226      232      233      239      238
8      228      229      235      234      240      241      247      246
8      229      230      236      235      241      242      248      247
8      230      231      237      236      242      243      249      248
8      231      232      238      237      243      244      250      249
8      232      233      239      238      244      245      251      250

CELL_TYPES          100
12
12
12
12
12
12
12
12
12
12
12
12
12
12
12
12
12
12
12
12
12
12
12
12
12
12
12
12
12
12
12
12
12
12
12
12
12
12
12
12
12
12
12
12
12
12
12
12
12
12
12
12
12
12
12
12
12
12
12
12
12
12
12
12
12
12
12
12
12
12
12
12
12
12
12
12
12
12
12
12
12
12
12
12
12
12
12
12
12
12
12
12
12
12
12
12
12
12
12
12

CELL_DATA      100
SCALARS Porosity             float 1
LOOKUP_TABLE default
 4.600000E-01  4.600000E-01  4.600000E-01  4.600000E-01  4.600000E-01  4.600000E-01  4.600000E-01  4.600000E-01  4.600000E-01  4.600000E-01
 4.600000E-01  4.600000E-01  4.600000E-01  4.600000E-01  4.600000E-01  4.600000E-01  4.600000E-01  4.600000E-01  4.600000E-01  4.600000E-01
 4.600000E-01  4.600000E-01  4.600000E-01  4.600000E-01  4.600000E-01  4.600000E-01  4.600000E-01  4.600000E-01  4.600000E-01  4.600000E-01
 4.600000E-01  4.600000E-01  4.600000E-01  4.600000E-01  4.600000E-01  4.600000E-01  4.600000E-01  4.600000E-01  4.600000E-01  4.600000E-01
 4.600000E-01  4.600000E-01  4.600000E-01  4.600000E-01  4.600000E-01  4.600000E-01  4.600000E-01  4.600000E-01  4.600000E-01  4.600000E-01
 4.600000E-01  4.600000E-01  4.600000E-01  4.600000E-01  4.600000E-01  4.600000E-01  4.600000E-01  4.600000E-01  4.600000E-01  4.600000E-01
 4.600000E-01  4.600000E-01  4.600000E-01  4.600000E-01  4.600000E-01  4.600000E-01  4.600000E-01  4.600000E-01  4.600000E-01  4.600000E-01
 4.600000E-01  4.600000E-01  4.600000E-01  4.600000E-01  4.600000E-01  4.600000E-01  4.600000E-01  4.600000E-01  4.600000E-01  4.600000E-01
 4.600000E-01  4.600000E-01  4.600000E-01  4.600000E-01  4.600000E-01  4.600000E-01  4.600000E-01  4.600000E-01  4.600000E-01  4.600000E-01
 4.600000E-01  4.600000E-01  4.600000E-01  4.600000E-01  4.600000E-01  4.600000E-01  4.600000E-01  4.600000E-01  4.600000E-01  4.600000E-01


SCALARS Permeability         float 1
LOOKUP_TABLE default
 1.000000E-12  1.000000E-12  1.000000E-12  1.000000E-12  1.000000E-12  1.000000E-12  1.000000E-12  1.000000E-12  1.000000E-12  1.000000E-12
 1.000000E-12  1.000000E-12  1.000000E-12  1.000000E-12  1.000000E-12  1.000000E-12  1.000000E-12  1.000000E-12  1.000000E-12  1.000000E-12
 1.000000E-12  1.000000E-12  1.000000E-12  1.000000E-12  1.000000E-12  1.000000E-12  1.000000E-12  1.000000E-12  1.000000E-12  1.000000E-12
 1.000000E-12  1.000000E-12  1.000000E-12  1.000000E-12  1.000000E-12  1.000000E-12  1.000000E-12  1.000000E-12  1.000000E-12  1.000000E-12
 1.000000E-12  1.000000E-12  1.000000E-12  1.000000E-12  1.000000E-12  1.000000E-12  1.000000E-12  1.000000E-12  1.000000E-12  1.000000E-12
 1.000000E-12  1.000000E-12  1.000000E-12  1.000000E-12  1.000000E-12  1.000000E-12  1.000000E-12  1.000000E-12  1.000000E-12  1.000000E-12
 1.000000E-12  1.000000E-12  1.000000E-12  1.000000E-12  1.000000E-12  1.000000E-12  1.000000E-12  1.000000E-12  1.000000E-12  1.000000E-12
 1.000000E-12  1.000000E-12  1.000000E-12  1.000000E-12  1.000000E-12  1.000000E-12  1.000000E-12  1.000000E-12  1.000000E-12  1.000000E-12
 1.000000E-12  1.000000E-12  1.000000E-12  1.000000E-12  1.000000E-12  1.000000E-12  1.000000E-12  1.000000E-12  1.000000E-12  1.000000E-12
 1.000000E-12  1.000000E-12  1.000000E-12  1.000000E-12  1.000000E-12  1.000000E-12  1.000000E-12  1.000000E-12  1.000000E-12  1.000000E-12


SCALARS Liquid_Pressure      float 1
LOOKUP_TABLE default
 7.501390E+06  7.501389E+06  7.501389E+06  7.501389E+06  7.501389E+06  7.501318E+06  7.501318E+06  7.501318E+06  7.501318E+06  7.501318E+06
 7.501247E+06  7.501247E+06  7.501247E+06  7.501247E+06  7.501247E+06  7.501176E+06  7.501176E+06  7.501176E+06  7.501176E+06  7.501176E+06
 7.501105E+06  7.501105E+06  7.501105E+06  7.501105E+06  7.501105E+06  7.501035E+06  7.501035E+06  7.501035E+06  7.501035E+06  7.501035E+06
 7.500964E+06  7.500964E+06  7.500964E+06  7.500964E+06  7.500964E+06  7.500893E+06  7.500893E+06  7.500893E+06  7.500893E+06  7.500893E+06
 7.500822E+06  7.500822E+06  7.500822E+06  7.500822E+06  7.500822E+06  7.500751E+06  7.500751E+06  7.500751E+06  7.500751E+06  7.500751E+06
 7.500680E+06  7.500680E+06  7.500680E+06  7.500680E+06  7.500680E+06  7.500609E+06  7.500609E+06  7.500609E+06  7.500609E+06  7.500609E+06
 7.500538E+06  7.500538E+06  7.500538E+06  7.500538E+06  7.500538E+06  7.500468E+06  7.500468E+06  7.500468E+06  7.500468E+06  7.500468E+06
 7.500397E+06  7.500397E+06  7.500397E+06  7.500397E+06  7.500397E+06  7.500326E+06  7.500326E+06  7.500326E+06  7.500326E+06  7.500326E+06
 7.500255E+06  7.500255E+06  7.500255E+06  7.500255E+06  7.500255E+06  7.500184E+06  7.500184E+06  7.500184E+06  7.500184E+06  7.500184E+06
 7.500113E+06  7.500113E+06  7.500113E+06  7.500113E+06  7.500113E+06  7.500042E+06  7.500042E+06  7.500042E+06  7.500042E+06  7.500042E+06


SCALARS Temperature          float 1
LOOKUP_TABLE default
 1.500000E+02  1.500000E+02  1.500000E+02  1.500000E+02  1.500000E+02  1.500000E+02  1.500000E+02  1.500000E+02  1.500000E+02  1.500000E+02
 1.500000E+02  1.500000E+02  1.500000E+02  1.500000E+02  1.500000E+02  1.500000E+02  1.500000E+02  1.500000E+02  1.500000E+02  1.500000E+02
 1.500000E+02  1.500000E+02  1.500000E+02  1.500000E+02  1.500000E+02  1.500000E+02  1.500000E+02  1.500000E+02  1.500000E+02  1.500000E+02
 1.500000E+02  1.500000E+02  1.500000E+02  1.500000E+02  1.500000E+02  1.500000E+02  1.500000E+02  1.500000E+02  1.500000E+02  1.500000E+02
 1.500000E+02  1.500000E+02  1.500000E+02  1.500000E+02  1.500000E+02  1.500000E+02  1.500000E+02  1.500000E+02  1.500000E+02  1.500000E+02
 1.500000E+02  1.500000E+02  1.500000E+02  1.500000E+02  1.500000E+02  1.500000E+02  1.500000E+02  1.500000E+02  1.500000E+02  1.500000E+02
 1.500000E+02  1.500000E+02  1.500000E+02  1.500000E+02  1.500000E+02  1.500000E+02  1.500000E+02  1.500000E+02  1.500000E+02  1.500000E+02
 1.500000E+02  1.500000E+02  1.500000E+02  1.500000E+02  1.500000E+02  1.500000E+02  1.500000E+02  1.500000E+02  1.500000E+02  1.500000E+02
 1.500000E+02  1.500000E+02  1.500000E+02  1.500000E+02  1.500000E+02  1.500000E+02  1.500000E+02  1.500000E+02  1.500000E+02  1.500000E+02
 1.500000E+02  1.500000E+02  1.500000E+02  1.500000E+02  1.500000E+02  1.500000E+02  1.500000E+02  1.500000E+02  1.500000E+02  1.500000E+02


SCALARS pH                   float 1
LOOKUP_TABLE default
 4.909916E+00  4.925297E+00  5.241237E+00  5.593266E+00  5.895827E+00  5.596471E+00  5.640673E+00  5.780456E+00  5.941507E+00  6.084729E+00
 5.946339E+00  5.977223E+00  6.053354E+00  6.147842E+00  6.228107E+00  6.157980E+00  6.181639E+00  6.232767E+00  6.295929E+00  6.346114E+00
 6.311963E+00  6.330860E+00  6.368505E+00  6.413709E+00  6.447464E+00  6.434928E+00  6.450330E+00  6.479372E+00  6.513085E+00  6.536981E+00
 6.538513E+00  6.551188E+00  6.574159E+00  6.599966E+00  6.617501E+00  6.628574E+00  6.639025E+00  6.657409E+00  6.677466E+00  6.690641E+00
 6.708175E+00  6.716752E+00  6.731494E+00  6.747175E+00  6.757203E+00  6.778831E+00  6.785792E+00  6.797540E+00  6.809772E+00  6.817429E+00
 6.841165E+00  6.846720E+00  6.855957E+00  6.865407E+00  6.871224E+00  6.895355E+00  6.899692E+00  6.906819E+00  6.914006E+00  6.918372E+00
 6.941484E+00  6.944785E+00  6.950162E+00  6.955521E+00  6.958743E+00  6.979789E+00  6.982238E+00  6.986197E+00  6.990108E+00  6.992440E+00
 7.010788E+00  7.012559E+00  7.015407E+00  7.018200E+00  7.019856E+00  7.035267E+00  7.036519E+00  7.038524E+00  7.040480E+00  7.041635E+00
 7.054181E+00  7.055050E+00  7.056435E+00  7.057782E+00  7.058575E+00  7.068533E+00  7.069128E+00  7.070072E+00  7.070985E+00  7.071521E+00
 7.079277E+00  7.079719E+00  7.080355E+00  7.080949E+00  7.081300E+00  7.087587E+00  7.088066E+00  7.088398E+00  7.088701E+00  7.088902E+00


SCALARS Total_H+             float 1
LOOKUP_TABLE default
-1.819697E-04 -1.830384E-04 -2.069950E-04 -2.474590E-04 -3.073382E-04 -2.479314E-04 -2.548853E-04 -2.807261E-04 -3.194167E-04 -3.641527E-04
-3.207288E-04 -3.295314E-04 -3.533589E-04 -3.875823E-04 -4.212458E-04 -3.915497E-04 -4.011636E-04 -4.232947E-04 -4.533319E-04 -4.794807E-04
-4.614076E-04 -4.712555E-04 -4.917890E-04 -5.181058E-04 -5.389896E-04 -5.310547E-04 -5.407637E-04 -5.597064E-04 -5.827564E-04 -5.998027E-04
-6.008776E-04 -6.101949E-04 -6.275287E-04 -6.476969E-04 -6.618274E-04 -6.709232E-04 -6.796637E-04 -6.953547E-04 -7.129346E-04 -7.247482E-04
-7.408343E-04 -7.488497E-04 -7.628474E-04 -7.780443E-04 -7.879303E-04 -8.097823E-04 -8.169494E-04 -8.291953E-04 -8.421494E-04 -8.503644E-04
-8.764749E-04 -8.826991E-04 -8.931499E-04 -9.039717E-04 -9.106984E-04 -9.392975E-04 -9.445267E-04 -9.531845E-04 -9.619957E-04 -9.673870E-04
-9.965961E-04 -1.000834E-03 -1.007773E-03 -1.014738E-03 -1.018947E-03 -1.047025E-03 -1.050336E-03 -1.055710E-03 -1.061045E-03 -1.064238E-03
-1.089828E-03 -1.092324E-03 -1.096349E-03 -1.100312E-03 -1.102667E-03 -1.124930E-03 -1.126753E-03 -1.129678E-03 -1.132540E-03 -1.134231E-03
-1.152852E-03 -1.154148E-03 -1.156218E-03 -1.158234E-03 -1.159421E-03 -1.174496E-03 -1.175401E-03 -1.176836E-03 -1.178225E-03 -1.179040E-03
-1.190946E-03 -1.191626E-03 -1.192603E-03 -1.193517E-03 -1.194058E-03 -1.203794E-03 -1.204537E-03 -1.205054E-03 -1.205524E-03 -1.205836E-03


SCALARS Total_SiO2(aq)       float 1
LOOKUP_TABLE default
 1.403646E-02  1.403392E-02  1.397851E-02  1.384217E-02  1.359008E-02  1.382327E-02  1.379254E-02  1.369238E-02  1.352559E-02  1.331980E-02
 1.350492E-02  1.346220E-02  1.335517E-02  1.319643E-02  1.303773E-02  1.316358E-02  1.311684E-02  1.301423E-02  1.287459E-02  1.275322E-02
 1.282453E-02  1.277871E-02  1.268614E-02  1.256855E-02  1.247596E-02  1.250173E-02  1.245979E-02  1.237977E-02  1.228362E-02  1.221319E-02
 1.220360E-02  1.216703E-02  1.210011E-02  1.202323E-02  1.196985E-02  1.193484E-02  1.190413E-02  1.184968E-02  1.178934E-02  1.174909E-02
 1.169760E-02  1.167260E-02  1.162932E-02  1.158274E-02  1.155259E-02  1.149216E-02  1.147233E-02  1.143866E-02  1.140325E-02  1.138086E-02
 1.131745E-02  1.130210E-02  1.127641E-02  1.124988E-02  1.123340E-02  1.117145E-02  1.115981E-02  1.114054E-02  1.112094E-02  1.110894E-02
 1.105141E-02  1.104274E-02  1.102853E-02  1.101423E-02  1.100557E-02  1.095417E-02  1.094781E-02  1.093747E-02  1.092716E-02  1.092097E-02
 1.087640E-02  1.087181E-02  1.086437E-02  1.085701E-02  1.085261E-02  1.081486E-02  1.081157E-02  1.080627E-02  1.080106E-02  1.079796E-02
 1.076655E-02  1.076421E-02  1.076046E-02  1.075679E-02  1.075462E-02  1.072884E-02  1.072718E-02  1.072454E-02  1.072197E-02  1.072045E-02
 1.069946E-02  1.069817E-02  1.069632E-02  1.069458E-02  1.069355E-02  1.067543E-02  1.067401E-02  1.067302E-02  1.067212E-02  1.067151E-02


SCALARS Total_Al+++          float 1
LOOKUP_TABLE default
 6.014457E-05  6.014457E-05  6.014457E-05  6.014457E-05  6.014457E-05  6.014457E-05  6.014457E-05  6.014457E-05  6.014457E-05  6.014457E-05
 6.014457E-05  6.014457E-05  6.014457E-05  6.014457E-05  6.014457E-05  6.014457E-05  6.014457E-05  6.014457E-05  6.014457E-05  6.014457E-05
 6.014457E-05  6.014457E-05  6.014457E-05  6.014457E-05  6.014457E-05  6.014457E-05  6.014457E-05  6.014457E-05  6.014457E-05  6.014457E-05
 6.014457E-05  6.014457E-05  6.014457E-05  6.014457E-05  6.014457E-05  6.014457E-05  6.014457E-05  6.014457E-05  6.014457E-05  6.014457E-05
 6.014457E-05  6.014457E-05  6.014457E-05  6.014457E-05  6.014457E-05  6.014457E-05  6.014457E-05  6.014457E-05  6.014457E-05  6.014457E-05
 6.014457E-05  6.014457E-05  6.014457E-05  6.014457E-05  6.014457E-05  6.014457E-05  6.014457E-05  6.014457E-05  6.014457E-05  6.014457E-05
 6.014457E-05  6.014457E-05  6.014457E-05  6.014457E-05  6.014457E-05  6.014457E-05  6.014457E-05  6.014457E-05  6.014457E-05  6.014457E-05
 6.014457E-05  6.014457E-05  6.014457E-05  6.014457E-05  6.014457E-05  6.014457E-05  6.014457E-05  6.014457E-05  6.014457E-05  6.014457E-05
 6.014457E-05  6.014457E-05  6.014457E-05  6.014457E-05  6.014457E-05  6.014457E-05  6.014457E-05  6.014457E-05  6.014457E-05  6.014457E-05