# vtk DataFile Version 2.0
PFLOTRAN output
ASCII
DATASET UNSTRUCTURED_GRID
POINTS          462 float
 0.000000E+00  0.000000E+00  0.000000E+00
 6.350000E-04  0.000000E+00  0.000000E+00
 1.270000E-03  0.000000E+00  0.000000E+00
 1.905000E-03  0.000000E+00  0.000000E+00
 2.540000E-03  0.000000E+00  0.000000E+00
 3.175000E-03  0.000000E+00  0.000000E+00
 3.810000E-03  0.000000E+00  0.000000E+00
 4.445000E-03  0.000000E+00  0.000000E+00
 5.080000E-03  0.000000E+00  0.000000E+00
 5.715000E-03  0.000000E+00  0.000000E+00
 6.350000E-03  0.000000E+00  0.000000E+00
 0.000000E+00  1.000000E+00  0.000000E+00
 6.350000E-04  1.000000E+00  0.000000E+00
 1.270000E-03  1.000000E+00  0.000000E+00
 1.905000E-03  1.000000E+00  0.000000E+00
 2.540000E-03  1.000000E+00  0.000000E+00
 3.175000E-03  1.000000E+00  0.000000E+00
 3.810000E-03  1.000000E+00  0.000000E+00
 4.445000E-03  1.000000E+00  0.000000E+00
 5.080000E-03  1.000000E+00  0.000000E+00
 5.715000E-03  1.000000E+00  0.000000E+00
 6.350000E-03  1.000000E+00  0.000000E+00
 0.000000E+00  0.000000E+00  7.580000E-03
 6.350000E-04  0.000000E+00  7.580000E-03
 1.270000E-03  0.000000E+00  7.580000E-03
 1.905000E-03  0.000000E+00  7.580000E-03
 2.540000E-03  0.000000E+00  7.580000E-03
 3.175000E-03  0.000000E+00  7.580000E-03
 3.810000E-03  0.000000E+00  7.580000E-03
 4.445000E-03  0.000000E+00  7.580000E-03
 5.080000E-03  0.000000E+00  7.580000E-03
 5.715000E-03  0.000000E+00  7.580000E-03
 6.350000E-03  0.000000E+00  7.580000E-03
 0.000000E+00  1.000000E+00  7.580000E-03
 6.350000E-04  1.000000E+00  7.580000E-03
 1.270000E-03  1.000000E+00  7.580000E-03
 1.905000E-03  1.000000E+00  7.580000E-03
 2.540000E-03  1.000000E+00  7.580000E-03
 3.175000E-03  1.000000E+00  7.580000E-03
 3.810000E-03  1.000000E+00  7.580000E-03
 4.445000E-03  1.000000E+00  7.580000E-03
 5.080000E-03  1.000000E+00  7.580000E-03
 5.715000E-03  1.000000E+00  7.580000E-03
 6.350000E-03  1.000000E+00  7.580000E-03
 0.000000E+00  0.000000E+00  1.516000E-02
 6.350000E-04  0.000000E+00  1.516000E-02
 1.270000E-03  0.000000E+00  1.516000E-02
 1.905000E-03  0.000000E+00  1.516000E-02
 2.540000E-03  0.000000E+00  1.516000E-02
 3.175000E-03  0.000000E+00  1.516000E-02
 3.810000E-03  0.000000E+00  1.516000E-02
 4.445000E-03  0.000000E+00  1.516000E-02
 5.080000E-03  0.000000E+00  1.516000E-02
 5.715000E-03  0.000000E+00  1.516000E-02
 6.350000E-03  0.000000E+00  1.516000E-02
 0.000000E+00  1.000000E+00  1.516000E-02
 6.350000E-04  1.000000E+00  1.516000E-02
 1.270000E-03  1.000000E+00  1.516000E-02
 1.905000E-03  1.000000E+00  1.516000E-02
 2.540000E-03  1.000000E+00  1.516000E-02
 3.175000E-03  1.000000E+00  1.516000E-02
 3.810000E-03  1.000000E+00  1.516000E-02
 4.445000E-03  1.000000E+00  1.516000E-02
 5.080000E-03  1.000000E+00  1.516000E-02
 5.715000E-03  1.000000E+00  1.516000E-02
 6.350000E-03  1.000000E+00  1.516000E-02
 0.000000E+00  0.000000E+00  2.274000E-02
 6.350000E-04  0.000000E+00  2.274000E-02
 1.270000E-03  0.000000E+00  2.274000E-02
 1.905000E-03  0.000000E+00  2.274000E-02
 2.540000E-03  0.000000E+00  2.274000E-02
 3.175000E-03  0.000000E+00  2.274000E-02
 3.810000E-03  0.000000E+00  2.274000E-02
 4.445000E-03  0.000000E+00  2.274000E-02
 5.080000E-03  0.000000E+00  2.274000E-02
 5.715000E-03  0.000000E+00  2.274000E-02
 6.350000E-03  0.000000E+00  2.274000E-02
 0.000000E+00  1.000000E+00  2.274000E-02
 6.350000E-04  1.000000E+00  2.274000E-02
 1.270000E-03  1.000000E+00  2.274000E-02
 1.905000E-03  1.000000E+00  2.274000E-02
 2.540000E-03  1.000000E+00  2.274000E-02
 3.175000E-03  1.000000E+00  2.274000E-02
 3.810000E-03  1.000000E+00  2.274000E-02
 4.445000E-03  1.000000E+00  2.274000E-02
 5.080000E-03  1.000000E+00  2.274000E-02
 5.715000E-03  1.000000E+00  2.274000E-02
 6.350000E-03  1.000000E+00  2.274000E-02
 0.000000E+00  0.000000E+00  3.032000E-02
 6.350000E-04  0.000000E+00  3.032000E-02
 1.270000E-03  0.000000E+00  3.032000E-02
 1.905000E-03  0.000000E+00  3.032000E-02
 2.540000E-03  0.000000E+00  3.032000E-02
 3.175000E-03  0.000000E+00  3.032000E-02
 3.810000E-03  0.000000E+00  3.032000E-02
 4.445000E-03  0.000000E+00  3.032000E-02
 5.080000E-03  0.000000E+00  3.032000E-02
 5.715000E-03  0.000000E+00  3.032000E-02
 6.350000E-03  0.000000E+00  3.032000E-02
 0.000000E+00  1.000000E+00  3.032000E-02
 6.350000E-04  1.000000E+00  3.032000E-02
 1.270000E-03  1.000000E+00  3.032000E-02
 1.905000E-03  1.000000E+00  3.032000E-02
 2.540000E-03  1.000000E+00  3.032000E-02
 3.175000E-03  1.000000E+00  3.032000E-02
 3.810000E-03  1.000000E+00  3.032000E-02
 4.445000E-03  1.000000E+00  3.032000E-02
 5.080000E-03  1.000000E+00  3.032000E-02
 5.715000E-03  1.000000E+00  3.032000E-02
 6.350000E-03  1.000000E+00  3.032000E-02
 0.000000E+00  0.000000E+00  3.790000E-02
 6.350000E-04  0.000000E+00  3.790000E-02
 1.270000E-03  0.000000E+00  3.790000E-02
 1.905000E-03  0.000000E+00  3.790000E-02
 2.540000E-03  0.000000E+00  3.790000E-02
 3.175000E-03  0.000000E+00  3.790000E-02
 3.810000E-03  0.000000E+00  3.790000E-02
 4.445000E-03  0.000000E+00  3.790000E-02
 5.080000E-03  0.000000E+00  3.790000E-02
 5.715000E-03  0.000000E+00  3.790000E-02
 6.350000E-03  0.000000E+00  3.790000E-02
 0.000000E+00  1.000000E+00  3.790000E-02
 6.350000E-04  1.000000E+00  3.790000E-02
 1.270000E-03  1.000000E+00  3.790000E-02
 1.905000E-03  1.000000E+00  3.790000E-02
 2.540000E-03  1.000000E+00  3.790000E-02
 3.175000E-03  1.000000E+00  3.790000E-02
 3.810000E-03  1.000000E+00  3.790000E-02
 4.445000E-03  1.000000E+00  3.790000E-02
 5.080000E-03  1.000000E+00  3.790000E-02
 5.715000E-03  1.000000E+00  3.790000E-02
 6.350000E-03  1.000000E+00  3.790000E-02
 0.000000E+00  0.000000E+00  4.548000E-02
 6.350000E-04  0.000000E+00  4.548000E-02
 1.270000E-03  0.000000E+00  4.548000E-02
 1.905000E-03  0.000000E+00  4.548000E-02
 2.540000E-03  0.000000E+00  4.548000E-02
 3.175000E-03  0.000000E+00  4.548000E-02
 3.810000E-03  0.000000E+00  4.548000E-02
 4.445000E-03  0.000000E+00  4.548000E-02
 5.080000E-03  0.000000E+00  4.548000E-02
 5.715000E-03  0.000000E+00  4.548000E-02
 6.350000E-03  0.000000E+00  4.548000E-02
 0.000000E+00  1.000000E+00  4.548000E-02
 6.350000E-04  1.000000E+00  4.548000E-02
 1.270000E-03  1.000000E+00  4.548000E-02
 1.905000E-03  1.000000E+00  4.548000E-02
 2.540000E-03  1.000000E+00  4.548000E-02
 3.175000E-03  1.000000E+00  4.548000E-02
 3.810000E-03  1.000000E+00  4.548000E-02
 4.445000E-03  1.000000E+00  4.548000E-02
 5.080000E-03  1.000000E+00  4.548000E-02
 5.715000E-03  1.000000E+00  4.548000E-02
 6.350000E-03  1.000000E+00  4.548000E-02
 0.000000E+00  0.000000E+00  5.306000E-02
 6.350000E-04  0.000000E+00  5.306000E-02
 1.270000E-03  0.000000E+00  5.306000E-02
 1.905000E-03  0.000000E+00  5.306000E-02
 2.540000E-03  0.000000E+00  5.306000E-02
 3.175000E-03  0.000000E+00  5.306000E-02
 3.810000E-03  0.000000E+00  5.306000E-02
 4.445000E-03  0.000000E+00  5.306000E-02
 5.080000E-03  0.000000E+00  5.306000E-02
 5.715000E-03  0.000000E+00  5.306000E-02
 6.350000E-03  0.000000E+00  5.306000E-02
 0.000000E+00  1.000000E+00  5.306000E-02
 6.350000E-04  1.000000E+00  5.306000E-02
 1.270000E-03  1.000000E+00  5.306000E-02
 1.905000E-03  1.000000E+00  5.306000E-02
 2.540000E-03  1.000000E+00  5.306000E-02
 3.175000E-03  1.000000E+00  5.306000E-02
 3.810000E-03  1.000000E+00  5.306000E-02
 4.445000E-03  1.000000E+00  5.306000E-02
 5.080000E-03  1.000000E+00  5.306000E-02
 5.715000E-03  1.000000E+00  5.306000E-02
 6.350000E-03  1.000000E+00  5.306000E-02
 0.000000E+00  0.000000E+00  6.064000E-02
 6.350000E-04  0.000000E+00  6.064000E-02
 1.270000E-03  0.000000E+00  6.064000E-02
 1.905000E-03  0.000000E+00  6.064000E-02
 2.540000E-03  0.000000E+00  6.064000E-02
 3.175000E-03  0.000000E+00  6.064000E-02
 3.810000E-03  0.000000E+00  6.064000E-02
 4.445000E-03  0.000000E+00  6.064000E-02
 5.080000E-03  0.000000E+00  6.064000E-02
 5.715000E-03  0.000000E+00  6.064000E-02
 6.350000E-03  0.000000E+00  6.064000E-02
 0.000000E+00  1.000000E+00  6.064000E-02
 6.350000E-04  1.000000E+00  6.064000E-02
 1.270000E-03  1.000000E+00  6.064000E-02
 1.905000E-03  1.000000E+00  6.064000E-02
 2.540000E-03  1.000000E+00  6.064000E-02
 3.175000E-03  1.000000E+00  6.064000E-02
 3.810000E-03  1.000000E+00  6.064000E-02
 4.445000E-03  1.000000E+00  6.064000E-02
 5.080000E-03  1.000000E+00  6.064000E-02
 5.715000E-03  1.000000E+00  6.064000E-02
 6.350000E-03  1.000000E+00  6.064000E-02
 0.000000E+00  0.000000E+00  6.822000E-02
 6.350000E-04  0.000000E+00  6.822000E-02
 1.270000E-03  0.000000E+00  6.822000E-02
 1.905000E-03  0.000000E+00  6.822000E-02
 2.540000E-03  0.000000E+00  6.822000E-02
 3.175000E-03  0.000000E+00  6.822000E-02
 3.810000E-03  0.000000E+00  6.822000E-02
 4.445000E-03  0.000000E+00  6.822000E-02
 5.080000E-03  0.000000E+00  6.822000E-02
 5.715000E-03  0.000000E+00  6.822000E-02
 6.350000E-03  0.000000E+00  6.822000E-02
 0.000000E+00  1.000000E+00  6.822000E-02
 6.350000E-04  1.000000E+00  6.822000E-02
 1.270000E-03  1.000000E+00  6.822000E-02
 1.905000E-03  1.000000E+00  6.822000E-02
 2.540000E-03  1.000000E+00  6.822000E-02
 3.175000E-03  1.000000E+00  6.822000E-02
 3.810000E-03  1.000000E+00  6.822000E-02
 4.445000E-03  1.000000E+00  6.822000E-02
 5.080000E-03  1.000000E+00  6.822000E-02
 5.715000E-03  1.000000E+00  6.822000E-02
 6.350000E-03  1.000000E+00  6.822000E-02
 0.000000E+00  0.000000E+00  7.580000E-02
 6.350000E-04  0.000000E+00  7.580000E-02
 1.270000E-03  0.000000E+00  7.580000E-02
 1.905000E-03  0.000000E+00  7.580000E-02
 2.540000E-03  0.000000E+00  7.580000E-02
 3.175000E-03  0.000000E+00  7.580000E-02
 3.810000E-03  0.000000E+00  7.580000E-02
 4.445000E-03  0.000000E+00  7.580000E-02
 5.080000E-03  0.000000E+00  7.580000E-02
 5.715000E-03  0.000000E+00  7.580000E-02
 6.350000E-03  0.000000E+00  7.580000E-02
 0.000000E+00  1.000000E+00  7.580000E-02
 6.350000E-04  1.000000E+00  7.580000E-02
 1.270000E-03  1.000000E+00  7.580000E-02
 1.905000E-03  1.000000E+00  7.580000E-02
[...]
CELL_DATA      200
SCALARS Porosity             float 1
LOOKUP_TABLE default
 4.600000E-01  4.600000E-01  4.600000E-01  4.600000E-01  4.600000E-01  4.600000E-01  4.600000E-01  4.600000E-01  4.600000E-01  4.600000E-01
 4.600000E-01  4.600000E-01  4.600000E-01  4.600000E-01  4.600000E-01  4.600000E-01  4.600000E-01  4.600000E-01  4.600000E-01  4.600000E-01
 4.600000E-01  4.600000E-01  4.600000E-01  4.600000E-01  4.600000E-01  4.600000E-01  4.600000E-01  4.600000E-01  4.600000E-01  4.600000E-01
 4.600000E-01  4.600000E-01  4.600000E-01  4.600000E-01  4.600000E-01  4.600000E-01  4.600000E-01  4.600000E-01  4.600000E-01  4.600000E-01
 4.600000E-01  4.600000E-01  4.600000E-01  4.600000E-01  4.600000E-01  4.600000E-01  4.600000E-01  4.600000E-01  4.600000E-01  4.600000E-01
 4.600000E-01  4.600000E-01  4.600000E-01  4.600000E-01  4.600000E-01  4.600000E-01  4.600000E-01  4.600000E-01  4.600000E-01  4.600000E-01
 4.600000E-01  4.600000E-01  4.600000E-01  4.600000E-01  4.600000E-01  4.600000E-01  4.600000E-01  4.600000E-01  4.600000E-01  4.600000E-01
 4.600000E-01  4.600000E-01  4.600000E-01  4.600000E-01  4.600000E-01  4.600000E-01  4.600000E-01  4.600000E-01  4.600000E-01  4.600000E-01
 4.600000E-01  4.600000E-01  4.600000E-01  4.600000E-01  4.600000E-01  4.600000E-01  4.600000E-01  4.600000E-01  4.600000E-01  4.600000E-01
 4.600000E-01  4.600000E-01  4.600000E-01  4.600000E-01  4.600000E-01  4.600000E-01  4.600000E-01  4.600000E-01  4.600000E-01  4.600000E-01
 4.600000E-01  4.600000E-01  4.600000E-01  4.600000E-01  4.600000E-01  4.600000E-01  4.600000E-01  4.600000E-01  4.600000E-01  4.600000E-01
 4.600000E-01  4.600000E-01  4.600000E-01  4.600000E-01  4.600000E-01  4.600000E-01  4.600000E-01  4.600000E-01  4.600000E-01  4.600000E-01
 4.600000E-01  4.600000E-01  4.600000E-01  4.600000E-01  4.600000E-01  4.600000E-01  4.600000E-01  4.600000E-01  4.600000E-01  4.600000E-01
 4.600000E-01  4.600000E-01  4.600000E-01  4.600000E-01  4.600000E-01  4.600000E-01  4.600000E-01  4.600000E-01  4.600000E-01  4.600000E-01
 4.600000E-01  4.600000E-01  4.600000E-01  4.600000E-01  4.600000E-01  4.600000E-01  4.600000E-01  4.600000E-01  4.600000E-01  4.600000E-01
 4.600000E-01  4.600000E-01  4.600000E-01  4.600000E-01  4.600000E-01  4.600000E-01  4.600000E-01  4.600000E-01  4.600000E-01  4.600000E-01
 4.600000E-01  4.600000E-01  4.600000E-01  4.600000E-01  4.600000E-01  4.600000E-01  4.600000E-01  4.600000E-01  4.600000E-01  4.600000E-01
 4.600000E-01  4.600000E-01  4.600000E-01  4.600000E-01  4.600000E-01  4.600000E-01  4.600000E-01  4.600000E-01  4.600000E-01  4.600000E-01
 4.600000E-01  4.600000E-01  4.600000E-01  4.600000E-01  4.600000E-01  4.600000E-01  4.600000E-01  4.600000E-01  4.600000E-01  4.600000E-01
 4.600000E-01  4.600000E-01  4.600000E-01  4.600000E-01  4.600000E-01  4.600000E-01  4.600000E-01  4.600000E-01  4.600000E-01  4.600000E-01


SCALARS Permeability         float 1
LOOKUP_TABLE default
 1.000000E-12  1.000000E-12  1.000000E-12  1.000000E-12  1.000000E-12  1.000000E-12  1.000000E-12  1.000000E-12  1.000000E-12  1.000000E-12
 1.000000E-12  1.000000E-12  1.000000E-12  1.000000E-12  1.000000E-12  1.000000E-12  1.000000E-12  1.000000E-12  1.000000E-12  1.000000E-12
 1.000000E-12  1.000000E-12  1.000000E-12  1.000000E-12  1.000000E-12  1.000000E-12  1.000000E-12  1.000000E-12  1.000000E-12  1.000000E-12
 1.000000E-12  1.000000E-12  1.000000E-12  1.000000E-12  1.000000E-12  1.000000E-12  1.000000E-12  1.000000E-12  1.000000E-12  1.000000E-12
 1.000000E-12  1.000000E-12  1.000000E-12  1.000000E-12  1.000000E-12  1.000000E-12  1.000000E-12  1.000000E-12  1.000000E-12  1.000000E-12
 1.000000E-12  1.000000E-12  1.000000E-12  1.000000E-12  1.000000E-12  1.000000E-12  1.000000E-12  1.000000E-12  1.000000E-12  1.000000E-12
 1.000000E-12  1.000000E-12  1.000000E-12  1.000000E-12  1.000000E-12  1.000000E-12  1.000000E-12  1.000000E-12  1.000000E-12  1.000000E-12
 1.000000E-12  1.000000E-12  1.000000E-12  1.000000E-12  1.000000E-12  1.000000E-12  1.000000E-12  1.000000E-12  1.000000E-12  1.000000E-12
 1.000000E-12  1.000000E-12  1.000000E-12  1.000000E-12  1.000000E-12  1.000000E-12  1.000000E-12  1.000000E-12  1.000000E-12  1.000000E-12
 1.000000E-12  1.000000E-12  1.000000E-12  1.000000E-12  1.000000E-12  1.000000E-12  1.000000E-12  1.000000E-12  1.000000E-12  1.000000E-12
 1.000000E-12  1.000000E-12  1.000000E-12  1.000000E-12  1.000000E-12  1.000000E-12  1.000000E-12  1.000000E-12  1.000000E-12  1.000000E-12
 1.000000E-12  1.000000E-12  1.000000E-12  1.000000E-12  1.000000E-12  1.000000E-12  1.000000E-12  1.000000E-12  1.000000E-12  1.000000E-12
 1.000000E-12  1.000000E-12  1.000000E-12  1.000000E-12  1.000000E-12  1.000000E-12  1.000000E-12  1.000000E-12  1.000000E-12  1.000000E-12
 1.000000E-12  1.000000E-12  1.000000E-12  1.000000E-12  1.000000E-12  1.000000E-12  1.000000E-12  1.000000E-12  1.000000E-12  1.000000E-12
 1.000000E-12  1.000000E-12  1.000000E-12  1.000000E-12  1.000000E-12  1.000000E-12  1.000000E-12  1.000000E-12  1.000000E-12  1.000000E-12
 1.000000E-12  1.000000E-12  1.000000E-12  1.000000E-12  1.000000E-12  1.000000E-12  1.000000E-12  1.000000E-12  1.000000E-12  1.000000E-12
 1.000000E-12  1.000000E-12  1.000000E-12  1.000000E-12  1.000000E-12  1.000000E-12  1.000000E-12  1.000000E-12  1.000000E-12  1.000000E-12
 1.000000E-12  1.000000E-12  1.000000E-12  1.000000E-12  1.000000E-12  1.000000E-12  1.000000E-12  1.000000E-12  1.000000E-12  1.000000E-12
 1.000000E-12  1.000000E-12  1.000000E-12  1.000000E-12  1.000000E-12  1.000000E-12  1.000000E-12  1.000000E-12  1.000000E-12  1.000000E-12
 1.000000E-12  1.000000E-12  1.000000E-12  1.000000E-12  1.000000E-12  1.000000E-12  1.000000E-12  1.000000E-12  1.000000E-12  1.000000E-12


SCALARS Liquid_Pressure      float 1
LOOKUP_TABLE default
 7.501887E+06  7.501887E+06  7.501886E+06  7.501884E+06  7.501883E+06  7.501881E+06  7.501881E+06  7.501880E+06  7.501880E+06  7.501879E+06
 7.501788E+06  7.501788E+06  7.501788E+06  7.501788E+06  7.501788E+06  7.501788E+06  7.501788E+06  7.501788E+06  7.501788E+06  7.501788E+06
 7.501695E+06  7.501695E+06  7.501695E+06  7.501695E+06  7.501695E+06  7.501695E+06  7.501695E+06  7.501695E+06  7.501695E+06  7.501695E+06
 7.501602E+06  7.501602E+06  7.501602E+06  7.501602E+06  7.501602E+06  7.501602E+06  7.501602E+06  7.501602E+06  7.501602E+06  7.501602E+06
 7.501509E+06  7.501509E+06  7.501509E+06  7.501509E+06  7.501509E+06  7.501509E+06  7.501509E+06  7.501509E+06  7.501509E+06  7.501509E+06
 7.501416E+06  7.501416E+06  7.501416E+06  7.501416E+06  7.501416E+06  7.501416E+06  7.501416E+06  7.501416E+06  7.501416E+06  7.501416E+06
 7.501323E+06  7.501323E+06  7.501323E+06  7.501323E+06  7.501323E+06  7.501323E+06  7.501323E+06  7.501323E+06  7.501323E+06  7.501323E+06
 7.501230E+06  7.501230E+06  7.501230E+06  7.501230E+06  7.501230E+06  7.501230E+06  7.501230E+06  7.501230E+06  7.501230E+06  7.501230E+06
 7.501137E+06  7.501137E+06  7.501137E+06  7.501137E+06  7.501137E+06  7.501137E+06  7.501137E+06  7.501137E+06  7.501137E+06  7.501137E+06
 7.501045E+06  7.501045E+06  7.501045E+06  7.501045E+06  7.501045E+06  7.501045E+06  7.501045E+06  7.501045E+06  7.501045E+06  7.501045E+06
 7.500952E+06  7.500952E+06  7.500952E+06  7.500952E+06  7.500952E+06  7.500952E+06  7.500952E+06  7.500952E+06  7.500952E+06  7.500952E+06
 7.500859E+06  7.500859E+06  7.500859E+06  7.500859E+06  7.500859E+06  7.500859E+06  7.500859E+06  7.500859E+06  7.500859E+06  7.500859E+06
 7.500766E+06  7.500766E+06  7.500766E+06  7.500766E+06  7.500766E+06  7.500766E+06  7.500766E+06  7.500766E+06  7.500766E+06  7.500766E+06
 7.500673E+06  7.500673E+06  7.500673E+06  7.500673E+06  7.500673E+06  7.500673E+06  7.500673E+06  7.500673E+06  7.500673E+06  7.500673E+06
 7.500580E+06  7.500580E+06  7.500580E+06  7.500580E+06  7.500580E+06  7.500580E+06  7.500580E+06  7.500580E+06  7.500580E+06  7.500580E+06
 7.500487E+06  7.500487E+06  7.500487E+06  7.500487E+06  7.500487E+06  7.500487E+06  7.500487E+06  7.500487E+06  7.500487E+06  7.500487E+06
 7.500394E+06  7.500394E+06  7.500394E+06  7.500394E+06  7.500394E+06  7.500394E+06  7.500394E+06  7.500394E+06  7.500394E+06  7.500394E+06
 7.500301E+06  7.500301E+06  7.500301E+06  7.500301E+06  7.500301E+06  7.500301E+06  7.500301E+06  7.500301E+06  7.500301E+06  7.500301E+06
 7.500208E+06  7.500208E+06  7.500208E+06  7.500208E+06  7.500208E+06  7.500208E+06  7.500208E+06  7.500208E+06  7.500208E+06  7.500208E+06
 7.500109E+06  7.500110E+06  7.500110E+06  7.500112E+06  7.500114E+06  7.500115E+06  7.500116E+06  7.500116E+06  7.500117E+06  7.500117E+06


SCALARS Temperature          float 1
LOOKUP_TABLE default
 1.500000E+02  1.500000E+02  1.500000E+02  1.500000E+02  1.500000E+02  1.500000E+02  1.500000E+02  1.500000E+02  1.500000E+02  1.500000E+02
 1.500000E+02  1.500000E+02  1.500000E+02  1.500000E+02  1.500000E+02  1.500000E+02  1.500000E+02  1.500000E+02  1.500000E+02  1.500000E+02
 1.500000E+02  1.500000E+02  1.500000E+02  1.500000E+02  1.500000E+02  1.500000E+02  1.500000E+02  1.500000E+02  1.500000E+02  1.500000E+02
 1.500001E+02  1.500001E+02  1.500001E+02  1.500001E+02  1.500001E+02  1.500001E+02  1.500001E+02  1.500001E+02  1.500001E+02  1.500001E+02
 1.500001E+02  1.500001E+02  1.500001E+02  1.500001E+02  1.500001E+02  1.500001E+02  1.500001E+02  1.500001E+02  1.500001E+02  1.500001E+02
 1.500001E+02  1.500001E+02  1.500001E+02  1.500001E+02  1.500001E+02  1.500001E+02  1.500001E+02  1.500001E+02  1.500001E+02  1.500001E+02
 1.500001E+02  1.500001E+02  1.500001E+02  1.500001E+02  1.500001E+02  1.500001E+02  1.500001E+02  1.500001E+02  1.500001E+02  1.500001E+02
 1.500001E+02  1.500001E+02  1.500001E+02  1.500001E+02  1.500001E+02  1.500001E+02  1.500001E+02  1.500001E+02  1.500001E+02  1.500001E+02
 1.500001E+02  1.500001E+02  1.500001E+02  1.500001E+02  1.500001E+02  1.500001E+02  1.500001E+02  1.500001E+02  1.500001E+02  1.500001E+02
 1.500001E+02  1.500001E+02  1.500001E+02  1.500001E+02  1.500001E+02  1.500001E+02  1.500001E+02  1.500001E+02  1.500001E+02  1.500001E+02
 1.500002E+02  1.500002E+02  1.500002E+02  1.500002E+02  1.500002E+02  1.500002E+02  1.500002E+02  1.500002E+02  1.500002E+02  1.500002E+02
 1.500002E+02  1.500002E+02  1.500002E+02  1.500002E+02  1.500002E+02  1.500002E+02  1.500002E+02  1.500002E+02  1.500002E+02  1.500002E+02
 1.500002E+02  1.500002E+02  1.500002E+02  1.500002E+02  1.500002E+02  1.500002E+02  1.500002E+02  1.500002E+02  1.500002E+02  1.500002E+02
 1.500002E+02  1.500002E+02  1.500002E+02  1.500002E+02  1.500002E+02  1.500002E+02  1.500002E+02  1.500002E+02  1.500002E+02  1.500002E+02
 1.500002E+02  1.500002E+02  1.500002E+02  1.500002E+02  1.500002E+02  1.500002E+02  1.500002E+02  1.500002E+02  1.500002E+02  1.500002E+02
 1.500002E+02  1.500002E+02  1.500002E+02  1.500002E+02  1.500002E+02  1.500002E+02  1.500002E+02  1.500002E+02  1.500002E+02  1.500002E+02
 1.500002E+02  1.500002E+02  1.500002E+02  1.500002E+02  1.500002E+02  1.500002E+02  1.500002E+02  1.500002E+02  1.500002E+02  1.500002E+02
 1.500002E+02  1.500002E+02  1.500002E+02  1.500002E+02  1.500002E+02  1.500002E+02  1.500002E+02  1.500002E+02  1.500002E+02  1.500002E+02
 1.500002E+02  1.500002E+02  1.500002E+02  1.500002E+02  1.500002E+02  1.500002E+02  1.500002E+02  1.500002E+02  1.500002E+02  1.500002E+02
 1.500001E+02  1.500001E+02  1.500001E+02  1.500001E+02  1.500001E+02  1.500002E+02  1.500002E+02  1.500002E+02  1.500002E+02  1.500002E+02


SCALARS pH                   float 1
LOOKUP_TABLE default
 4.818606E+00  4.818607E+00  4.818614E+00  4.819205E+00  4.885042E+00  4.969032E+00  5.070774E+00  5.190423E+00  5.333968E+00  5.508743E+00
 5.159706E+00  5.162713E+00  5.168892E+00  5.180785E+00  5.227376E+00  5.283990E+00  5.348391E+00  5.423375E+00  5.516294E+00  5.626357E+00
 5.403566E+00  5.405505E+00  5.409673E+00  5.418585E+00  5.446328E+00  5.481940E+00  5.524351E+00  5.576291E+00  5.642925E+00  5.718089E+00
 5.560121E+00  5.561508E+00  5.564657E+00  5.571801E+00  5.590924E+00  5.616487E+00  5.648001E+00  5.687826E+00  5.739250E+00  5.793801E+00
 5.673528E+00  5.674639E+00  5.677282E+00  5.683379E+00  5.697935E+00  5.717927E+00  5.743180E+00  5.775642E+00  5.817139E+00  5.858471E+00
 5.762542E+00  5.763501E+00  5.765855E+00  5.771250E+00  5.783046E+00  5.799546E+00  5.820761E+00  5.848240E+00  5.882709E+00  5.915043E+00
 5.836026E+00  5.836893E+00  5.839064E+00  5.843945E+00  5.853916E+00  5.868034E+00  5.886421E+00  5.910267E+00  5.939481E+00  5.965415E+00
 5.898774E+00  5.899584E+00  5.901629E+00  5.906112E+00  5.914794E+00  5.927187E+00  5.943472E+00  5.964523E+00  5.989657E+00  6.010881E+00
 5.953658E+00  5.954431E+00  5.956381E+00  5.960545E+00  5.968273E+00  5.979358E+00  5.994008E+00  6.012823E+00  6.034701E+00  6.052364E+00
 6.002529E+00  6.003276E+00  6.005151E+00  6.009051E+00  6.016047E+00  6.026105E+00  6.039438E+00  6.056410E+00  6.075635E+00  6.090546E+00
 6.046648E+00  6.047376E+00  6.049190E+00  6.052868E+00  6.059283E+00  6.068512E+00  6.080755E+00  6.096175E+00  6.113203E+00  6.125945E+00
 6.086913E+00  6.087628E+00  6.089389E+00  6.092877E+00  6.098821E+00  6.107363E+00  6.118682E+00  6.132774E+00  6.147958E+00  6.158965E+00
 6.123989E+00  6.124694E+00  6.126408E+00  6.129731E+00  6.135284E+00  6.143247E+00  6.153769E+00  6.166707E+00  6.180328E+00  6.189924E+00
 6.158378E+00  6.159073E+00  6.160745E+00  6.163924E+00  6.169148E+00  6.176614E+00  6.186437E+00  6.198363E+00  6.210647E+00  6.219083E+00
 6.190471E+00  6.191159E+00  6.192792E+00  6.195843E+00  6.200783E+00  6.207816E+00  6.217021E+00  6.228051E+00  6.239181E+00  6.246652E+00
 6.220578E+00  6.221259E+00  6.222856E+00  6.225793E+00  6.230487E+00  6.237138E+00  6.245789E+00  6.256020E+00  6.266147E+00  6.272807E+00
 6.248949E+00  6.249624E+00  6.251189E+00  6.254024E+00  6.258502E+00  6.264812E+00  6.272962E+00  6.282477E+00  6.291724E+00  6.297696E+00
 6.275787E+00  6.276467E+00  6.278022E+00  6.280790E+00  6.285099E+00  6.291115E+00  6.298803E+00  6.307644E+00  6.316083E+00  6.321448E+00
 6.301339E+00  6.302350E+00  6.304403E+00  6.307638E+00  6.312134E+00  6.317941E+00  6.324934E+00  6.332605E+00  6.339718E+00  6.344267E+00
 6.340404E+00  6.344995E+00  6.349076E+00  6.352201E+00  6.354440E+00  6.357049E+00  6.359940E+00  6.362936E+00  6.365718E+00  6.367775E+00


SCALARS Total_H+             float 1
LOOKUP_TABLE default
-1.755844E-04 -1.755845E-04 -1.755850E-04 -1.756269E-04 -1.802430E-04 -1.860928E-04 -1.933842E-04 -2.026910E-04 -2.156771E-04 -2.356569E-04
-2.001967E-04 -2.004372E-04 -2.009337E-04 -2.018987E-04 -2.058076E-04 -2.108712E-04 -2.171284E-04 -2.252091E-04 -2.366530E-04 -2.527154E-04
-2.229815E-04 -2.231964E-04 -2.236604E-04 -2.246629E-04 -2.278763E-04 -2.322173E-04 -2.377292E-04 -2.450348E-04 -2.554049E-04 -2.686296E-04
-2.426898E-04 -2.428882E-04 -2.433406E-04 -2.443757E-04 -2.472100E-04 -2.511464E-04 -2.562435E-04 -2.630953E-04 -2.726749E-04 -2.838247E-04
-2.605789E-04 -2.607721E-04 -2.612329E-04 -2.623043E-04 -2.649091E-04 -2.685963E-04 -2.734415E-04 -2.799925E-04 -2.889285E-04 -2.985007E-04
-2.773019E-04 -2.774965E-04 -2.779758E-04 -2.790817E-04 -2.815372E-04 -2.850584E-04 -2.897379E-04 -2.960642E-04 -3.044436E-04 -3.127793E-04
-2.932120E-04 -2.934123E-04 -2.939150E-04 -2.950523E-04 -2.974065E-04 -3.008116E-04 -3.053743E-04 -3.115155E-04 -3.193978E-04 -3.267420E-04
-3.085209E-04 -3.087297E-04 -3.092581E-04 -3.104237E-04 -3.127076E-04 -3.160287E-04 -3.205036E-04 -3.264807E-04 -3.339116E-04 -3.404465E-04
-3.233654E-04 -3.235846E-04 -3.241395E-04 -3.253308E-04 -3.275654E-04 -3.308241E-04 -3.352286E-04 -3.410527E-04 -3.480700E-04 -3.539346E-04
-3.378393E-04 -3.380701E-04 -3.386513E-04 -3.398662E-04 -3.420664E-04 -3.452775E-04 -3.496218E-04 -3.552990E-04 -3.619354E-04 -3.672379E-04
-3.520094E-04 -3.522526E-04 -3.528594E-04 -3.540962E-04 -3.562727E-04 -3.594467E-04 -3.637363E-04 -3.692701E-04 -3.755546E-04 -3.803805E-04
-3.659250E-04 -3.661810E-04 -3.668126E-04 -3.680698E-04 -3.702303E-04 -3.733744E-04 -3.776122E-04 -3.830045E-04 -3.889635E-04 -3.933814E-04
-3.796235E-04 -3.798923E-04 -3.805477E-04 -3.818243E-04 -3.839743E-04 -3.870934E-04 -3.912803E-04 -3.965328E-04 -4.021901E-04 -4.062556E-04
-3.931338E-04 -3.934152E-04 -3.940933E-04 -3.953882E-04 -3.975318E-04 -4.006292E-04 -4.047648E-04 -4.098790E-04 -4.152563E-04 -4.190150E-04
-4.064783E-04 -4.067723E-04 -4.074719E-04 -4.087842E-04 -4.109242E-04 -4.140017E-04 -4.180852E-04 -4.230626E-04 -4.281798E-04 -4.316694E-04
-4.196752E-04 -4.199813E-04 -4.207014E-04 -4.220303E-04 -4.241686E-04 -4.272272E-04 -4.312571E-04 -4.360996E-04 -4.409747E-04 -4.442267E-04
-4.327389E-04 -4.330569E-04 -4.337967E-04 -4.351419E-04 -4.372803E-04 -4.403206E-04 -4.442952E-04 -4.490043E-04 -4.536530E-04 -4.566934E-04
-4.456802E-04 -4.460154E-04 -4.467840E-04 -4.481577E-04 -4.503088E-04 -4.533373E-04 -4.572522E-04 -4.618163E-04 -4.662353E-04 -4.690773E-04
-4.585485E-04 -4.590692E-04 -4.601286E-04 -4.618062E-04 -4.641524E-04 -4.672085E-04 -4.709284E-04 -4.750577E-04 -4.789338E-04 -4.814364E-04
-4.793009E-04 -4.818285E-04 -4.840914E-04 -4.858346E-04 -4.870891E-04 -4.885566E-04 -4.901901E-04 -4.918912E-04 -4.934779E-04 -4.946561E-04


SCALARS Total_SiO2(aq)       float 1
LOOKUP_TABLE default
 1.405812E-02  1.405812E-02  1.405812E-02  1.405810E-02  1.405650E-02  1.405413E-02  1.405048E-02  1.404452E-02  1.403332E-02  1.401028E-02
 1.404349E-02  1.404326E-02  1.404279E-02  1.404188E-02  1.403914E-02  1.403527E-02  1.402995E-02  1.402199E-02  1.400844E-02  1.398622E-02
 1.402175E-02  1.402147E-02  1.402085E-02  1.401959E-02  1.401636E-02  1.401176E-02  1.400545E-02  1.399613E-02  1.398116E-02  1.396032E-02
 1.399691E-02  1.399659E-02  1.399586E-02  1.399430E-02  1.399071E-02  1.398554E-02  1.397842E-02  1.396800E-02  1.395213E-02  1.393269E-02
 1.396979E-02  1.396943E-02  1.396858E-02  1.396674E-02  1.396286E-02  1.395721E-02  1.394938E-02  1.393806E-02  1.392164E-02  1.390355E-02
 1.394080E-02  1.394040E-02  1.393942E-02  1.393735E-02  1.393320E-02  1.392712E-02  1.391868E-02  1.390662E-02  1.388993E-02  1.387306E-02
 1.391025E-02  1.390979E-02  1.390870E-02  1.390639E-02  1.390200E-02  1.389554E-02  1.388655E-02  1.387390E-02  1.385713E-02  1.384139E-02
 1.387833E-02  1.387783E-02  1.387661E-02  1.387409E-02  1.386948E-02  1.386268E-02  1.385320E-02  1.384007E-02  1.382338E-02  1.380867E-02
 1.384524E-02  1.384469E-02  1.384334E-02  1.384063E-02  1.383580E-02  1.382869E-02  1.381878E-02  1.380530E-02  1.378879E-02  1.377501E-02
 1.381111E-02  1.381050E-02  1.380904E-02  1.380614E-02  1.380111E-02  1.379371E-02  1.378344E-02  1.376969E-02  1.375344E-02  1.374050E-02
 1.377606E-02  1.377540E-02  1.377382E-02  1.377075E-02  1.376553E-02  1.375787E-02  1.374728E-02  1.373336E-02  1.371742E-02  1.370524E-02
 1.374020E-02  1.373949E-02  1.373780E-02  1.373457E-02  1.372917E-02  1.372126E-02  1.371041E-02  1.369638E-02  1.368081E-02  1.366932E-02
 1.370363E-02  1.370287E-02  1.370106E-02  1.369768E-02  1.369211E-02  1.368398E-02  1.367291E-02  1.365885E-02  1.364366E-02  1.363280E-02
 1.366642E-02  1.366560E-02  1.366370E-02  1.366017E-02  1.365443E-02  1.364612E-02  1.363487E-02  1.362082E-02  1.360604E-02  1.359576E-02
 1.362865E-02  1.362778E-02  1.362577E-02  1.362211E-02  1.361622E-02  1.360773E-02  1.359635E-02  1.358237E-02  1.356800E-02  1.355825E-02
 1.359038E-02  1.358947E-02  1.358736E-02  1.358357E-02  1.357755E-02  1.356891E-02  1.355743E-02  1.354355E-02  1.352959E-02  1.352033E-02
 1.355169E-02  1.355073E-02  1.354853E-02  1.354461E-02  1.353846E-02  1.352969E-02  1.351814E-02  1.350441E-02  1.349087E-02  1.348206E-02
 1.351262E-02  1.351160E-02  1.350928E-02  1.350521E-02  1.349890E-02  1.349000E-02  1.347843E-02  1.346491E-02  1.345185E-02  1.344348E-02
 1.347312E-02  1.347151E-02  1.346828E-02  1.346323E-02  1.345622E-02  1.344708E-02  1.343593E-02  1.342353E-02  1.341193E-02  1.340446E-02