# vtk DataFile Version 2.0
PFLOTRAN output
ASCII
DATASET UNSTRUCTURED_GRID
POINTS          462 float
 0.000000E+00  0.000000E+00  0.000000E+00
 6.350000E-04  0.000000E+00  0.000000E+00
 1.270000E-03  0.000000E+00  0.000000E+00
 1.905000E-03  0.000000E+00  0.000000E+00
 2.540000E-03  0.000000E+00  0.000000E+00
 3.175000E-03  0.000000E+00  0.000000E+00
 3.810000E-03  0.000000E+00  0.000000E+00
 4.445000E-03  0.000000E+00  0.000000E+00
 5.080000E-03  0.000000E+00  0.000000E+00
 5.715000E-03  0.000000E+00  0.000000E+00
 6.350000E-03  0.000000E+00  0.000000E+00
 0.000000E+00  1.000000E+00  0.000000E+00
 6.350000E-04  1.000000E+00  0.000000E+00
 1.270000E-03  1.000000E+00  0.000000E+00
 1.905000E-03  1.000000E+00  0.000000E+00
 2.540000E-03  1.000000E+00  0.000000E+00
 3.175000E-03  1.000000E+00  0.000000E+00
 3.810000E-03  1.000000E+00  0.000000E+00
 4.445000E-03  1.000000E+00  0.000000E+00
 5.080000E-03  1.000000E+00  0.000000E+00
 5.715000E-03  1.000000E+00  0.000000E+00
 6.350000E-03  1.000000E+00  0.000000E+00
 0.000000E+00  0.000000E+00  7.580000E-03
 6.350000E-04  0.000000E+00  7.580000E-03
 1.270000E-03  0.000000E+00  7.580000E-03
 1.905000E-03  0.000000E+00  7.580000E-03
 2.540000E-03  0.000000E+00  7.580000E-03
 3.175000E-03  0.000000E+00  7.580000E-03
 3.810000E-03  0.000000E+00  7.580000E-03
 4.445000E-03  0.000000E+00  7.580000E-03
 5.080000E-03  0.000000E+00  7.580000E-03
 5.715000E-03  0.000000E+00  7.580000E-03
 6.350000E-03  0.000000E+00  7.580000E-03
 0.000000E+00  1.000000E+00  7.580000E-03
 6.350000E-04  1.000000E+00  7.580000E-03
 1.270000E-03  1.000000E+00  7.580000E-03
 1.905000E-03  1.000000E+00  7.580000E-03
 2.540000E-03  1.000000E+00  7.580000E-03
 3.175000E-03  1.000000E+00  7.580000E-03
 3.810000E-03  1.000000E+00  7.580000E-03
 4.445000E-03  1.000000E+00  7.580000E-03
 5.080000E-03  1.000000E+00  7.580000E-03
 5.715000E-03  1.000000E+00  7.580000E-03
 6.350000E-03  1.000000E+00  7.580000E-03
 0.000000E+00  0.000000E+00  1.516000E-02
 6.350000E-04  0.000000E+00  1.516000E-02
 1.270000E-03  0.000000E+00  1.516000E-02
 1.905000E-03  0.000000E+00  1.516000E-02
 2.540000E-03  0.000000E+00  1.516000E-02
 3.175000E-03  0.000000E+00  1.516000E-02
 3.810000E-03  0.000000E+00  1.516000E-02
 4.445000E-03  0.000000E+00  1.516000E-02
 5.080000E-03  0.000000E+00  1.516000E-02
 5.715000E-03  0.000000E+00  1.516000E-02
 6.350000E-03  0.000000E+00  1.516000E-02
 0.000000E+00  1.000000E+00  1.516000E-02
 6.350000E-04  1.000000E+00  1.516000E-02
 1.270000E-03  1.000000E+00  1.516000E-02
 1.905000E-03  1.000000E+00  1.516000E-02
 2.540000E-03  1.000000E+00  1.516000E-02
 3.175000E-03  1.000000E+00  1.516000E-02
 3.810000E-03  1.000000E+00  1.516000E-02
 4.445000E-03  1.000000E+00  1.516000E-02
 5.080000E-03  1.000000E+00  1.516000E-02
 5.715000E-03  1.000000E+00  1.516000E-02
 6.350000E-03  1.000000E+00  1.516000E-02
 0.000000E+00  0.000000E+00  2.274000E-02
 6.350000E-04  0.000000E+00  2.274000E-02
 1.270000E-03  0.000000E+00  2.274000E-02
 1.905000E-03  0.000000E+00  2.274000E-02
 2.540000E-03  0.000000E+00  2.274000E-02
 3.175000E-03  0.000000E+00  2.274000E-02
 3.810000E-03  0.000000E+00  2.274000E-02
 4.445000E-03  0.000000E+00  2.274000E-02
 5.080000E-03  0.000000E+00  2.274000E-02
 5.715000E-03  0.000000E+00  2.274000E-02
 6.350000E-03  0.000000E+00  2.274000E-02
 0.000000E+00  1.000000E+00  2.274000E-02
 6.350000E-04  1.000000E+00  2.274000E-02
 1.270000E-03  1.000000E+00  2.274000E-02
 1.905000E-03  1.000000E+00  2.274000E-02
 2.540000E-03  1.000000E+00  2.274000E-02
 3.175000E-03  1.000000E+00  2.274000E-02
 3.810000E-03  1.000000E+00  2.274000E-02
 4.445000E-03  1.000000E+00  2.274000E-02
 5.080000E-03  1.000000E+00  2.274000E-02
 5.715000E-03  1.000000E+00  2.274000E-02
 6.350000E-03  1.000000E+00  2.274000E-02
 0.000000E+00  0.000000E+00  3.032000E-02
 6.350000E-04  0.000000E+00  3.032000E-02
 1.270000E-03  0.000000E+00  3.032000E-02
 1.905000E-03  0.000000E+00  3.032000E-02
 2.540000E-03  0.000000E+00  3.032000E-02
 3.175000E-03  0.000000E+00  3.032000E-02
 3.810000E-03  0.000000E+00  3.032000E-02
 4.445000E-03  0.000000E+00  3.032000E-02
 5.080000E-03  0.000000E+00  3.032000E-02
 5.715000E-03  0.000000E+00  3.032000E-02
 6.350000E-03  0.000000E+00  3.032000E-02
 0.000000E+00  1.000000E+00  3.032000E-02
 6.350000E-04  1.000000E+00  3.032000E-02
 1.270000E-03  1.000000E+00  3.032000E-02
 1.905000E-03  1.000000E+00  3.032000E-02
 2.540000E-03  1.000000E+00  3.032000E-02
 3.175000E-03  1.000000E+00  3.032000E-02
 3.810000E-03  1.000000E+00  3.032000E-02
 4.445000E-03  1.000000E+00  3.032000E-02
 5.080000E-03  1.000000E+00  3.032000E-02
 5.715000E-03  1.000000E+00  3.032000E-02
 6.350000E-03  1.000000E+00  3.032000E-02
 0.000000E+00  0.000000E+00  3.790000E-02
 6.350000E-04  0.000000E+00  3.790000E-02
 1.270000E-03  0.000000E+00  3.790000E-02
 1.905000E-03  0.000000E+00  3.790000E-02
 2.540000E-03  0.000000E+00  3.790000E-02
 3.175000E-03  0.000000E+00  3.790000E-02
 3.810000E-03  0.000000E+00  3.790000E-02
 4.445000E-03  0.000000E+00  3.790000E-02
 5.080000E-03  0.000000E+00  3.790000E-02
 5.715000E-03  0.000000E+00  3.790000E-02
 6.350000E-03  0.000000E+00  3.790000E-02
 0.000000E+00  1.000000E+00  3.790000E-02
 6.350000E-04  1.000000E+00  3.790000E-02
 1.270000E-03  1.000000E+00  3.790000E-02
 1.905000E-03  1.000000E+00  3.790000E-02
 2.540000E-03  1.000000E+00  3.790000E-02
 3.175000E-03  1.000000E+00  3.790000E-02
 3.810000E-03  1.000000E+00  3.790000E-02
 4.445000E-03  1.000000E+00  3.790000E-02
 5.080000E-03  1.000000E+00  3.790000E-02
 5.715000E-03  1.000000E+00  3.790000E-02
 6.350000E-03  1.000000E+00  3.790000E-02
 0.000000E+00  0.000000E+00  4.548000E-02
 6.350000E-04  0.000000E+00  4.548000E-02
 1.270000E-03  0.000000E+00  4.548000E-02
 1.905000E-03  0.000000E+00  4.548000E-02
 2.540000E-03  0.000000E+00  4.548000E-02
 3.175000E-03  0.000000E+00  4.548000E-02
 3.810000E-03  0.000000E+00  4.548000E-02
 4.445000E-03  0.000000E+00  4.548000E-02
 5.080000E-03  0.000000E+00  4.548000E-02
 5.715000E-03  0.000000E+00  4.548000E-02
 6.350000E-03  0.000000E+00  4.548000E-02
 0.000000E+00  1.000000E+00  4.548000E-02
 6.350000E-04  1.000000E+00  4.548000E-02
 1.270000E-03  1.000000E+00  4.548000E-02
 1.905000E-03  1.000000E+00  4.548000E-02
 2.540000E-03  1.000000E+00  4.548000E-02
 3.175000E-03  1.000000E+00  4.548000E-02
 3.810000E-03  1.000000E+00  4.548000E-02
 4.445000E-03  1.000000E+00  4.548000E-02
 5.080000E-03  1.000000E+00  4.548000E-02
 5.715000E-03  1.000000E+00  4.548000E-02
 6.350000E-03  1.000000E+00  4.548000E-02
 0.000000E+00  0.000000E+00  5.306000E-02
 6.350000E-04  0.000000E+00  5.306000E-02
 1.270000E-03  0.000000E+00  5.306000E-02
 1.905000E-03  0.000000E+00  5.306000E-02
 2.540000E-03  0.000000E+00  5.306000E-02
 3.175000E-03  0.000000E+00  5.306000E-02
 3.810000E-03  0.000000E+00  5.306000E-02
 4.445000E-03  0.000000E+00  5.306000E-02
 5.080000E-03  0.000000E+00  5.306000E-02
 5.715000E-03  0.000000E+00  5.306000E-02
 6.350000E-03  0.000000E+00  5.306000E-02
 0.000000E+00  1.000000E+00  5.306000E-02
 6.350000E-04  1.000000E+00  5.306000E-02
 1.270000E-03  1.000000E+00  5.306000E-02
 1.905000E-03  1.000000E+00  5.306000E-02
 2.540000E-03  1.000000E+00  5.306000E-02
 3.175000E-03  1.000000E+00  5.306000E-02
 3.810000E-03  1.000000E+00  5.306000E-02
 4.445000E-03  1.000000E+00  5.306000E-02
 5.080000E-03  1.000000E+00  5.306000E-02
 5.715000E-03  1.000000E+00  5.306000E-02
 6.350000E-03  1.000000E+00  5.306000E-02
 0.000000E+00  0.000000E+00  6.064000E-02
 6.350000E-04  0.000000E+00  6.064000E-02
 1.270000E-03  0.000000E+00  6.064000E-02
 1.905000E-03  0.000000E+00  6.064000E-02
 2.540000E-03  0.000000E+00  6.064000E-02
 3.175000E-03  0.000000E+00  6.064000E-02
 3.810000E-03  0.000000E+00  6.064000E-02
 4.445000E-03  0.000000E+00  6.064000E-02
 5.080000E-03  0.000000E+00  6.064000E-02
 5.715000E-03  0.000000E+00  6.064000E-02
 6.350000E-03  0.000000E+00  6.064000E-02
 0.000000E+00  1.000000E+00  6.064000E-02
 6.350000E-04  1.000000E+00  6.064000E-02
 1.270000E-03  1.000000E+00  6.064000E-02
 1.905000E-03  1.000000E+00  6.064000E-02
 2.540000E-03  1.000000E+00  6.064000E-02
 3.175000E-03  1.000000E+00  6.064000E-02
 3.810000E-03  1.000000E+00  6.064000E-02
 4.445000E-03  1.000000E+00  6.064000E-02
 5.080000E-03  1.000000E+00  6.064000E-02
 5.715000E-03  1.000000E+00  6.064000E-02
 6.350000E-03  1.000000E+00  6.064000E-02
 0.000000E+00  0.000000E+00  6.822000E-02
 6.350000E-04  0.000000E+00  6.822000E-02
 1.270000E-03  0.000000E+00  6.822000E-02
 1.905000E-03  0.000000E+00  6.822000E-02
 2.540000E-03  0.000000E+00  6.822000E-02
 3.175000E-03  0.000000E+00  6.822000E-02
 3.810000E-03  0.000000E+00  6.822000E-02
 4.445000E-03  0.000000E+00  6.822000E-02
 5.080000E-03  0.000000E+00  6.822000E-02
 5.715000E-03  0.000000E+00  6.822000E-02
 6.350000E-03  0.000000E+00  6.822000E-02
 0.000000E+00  1.000000E+00  6.822000E-02
 6.350000E-04  1.000000E+00  6.822000E-02
 1.270000E-03  1.000000E+00  6.822000E-02
 1.905000E-03  1.000000E+00  6.822000E-02
 2.540000E-03  1.000000E+00  6.822000E-02
 3.175000E-03  1.000000E+00  6.822000E-02
 3.810000E-03  1.000000E+00  6.822000E-02
 4.445000E-03  1.000000E+00  6.822000E-02
 5.080000E-03  1.000000E+00  6.822000E-02
 5.715000E-03  1.000000E+00  6.822000E-02
 6.350000E-03  1.000000E+00  6.822000E-02
 0.000000E+00  0.000000E+00  7.580000E-02
 6.350000E-04  0.000000E+00  7.580000E-02
 1.270000E-03  0.000000E+00  7.580000E-02
 1.905000E-03  0.000000E+00  7.580000E-02
 2.540000E-03  0.000000E+00  7.580000E-02
 3.175000E-03  0.000000E+00  7.580000E-02
 3.810000E-03  0.000000E+00  7.580000E-02
 4.445000E-03  0.000000E+00  7.580000E-02
 5.080000E-03  0.000000E+00  7.580000E-02
 5.715000E-03  0.000000E+00  7.580000E-02
 6.350000E-03  0.000000E+00  7.580000E-02
 0.000000E+00  1.000000E+00  7.580000E-02
 6.350000E-04  1.000000E+00  7.580000E-02
 1.270000E-03  1.000000E+00  7.580000E-02
 1.905000E-03  1.000000E+00  7.580000E-02
[...]
CELL_DATA      200
SCALARS Porosity             float 1
LOOKUP_TABLE default
 4.600000E-01  4.600000E-01  4.600000E-01  4.600000E-01  4.600000E-01  4.600000E-01  4.600000E-01  4.600000E-01  4.600000E-01  4.600000E-01
 4.600000E-01  4.600000E-01  4.600000E-01  4.600000E-01  4.600000E-01  4.600000E-01  4.600000E-01  4.600000E-01  4.600000E-01  4.600000E-01
 4.600000E-01  4.600000E-01  4.600000E-01  4.600000E-01  4.600000E-01  4.600000E-01  4.600000E-01  4.600000E-01  4.600000E-01  4.600000E-01
 4.600000E-01  4.600000E-01  4.600000E-01  4.600000E-01  4.600000E-01  4.600000E-01  4.600000E-01  4.600000E-01  4.600000E-01  4.600000E-01
 4.600000E-01  4.600000E-01  4.600000E-01  4.600000E-01  4.600000E-01  4.600000E-01  4.600000E-01  4.600000E-01  4.600000E-01  4.600000E-01
 4.600000E-01  4.600000E-01  4.600000E-01  4.600000E-01  4.600000E-01  4.600000E-01  4.600000E-01  4.600000E-01  4.600000E-01  4.600000E-01
 4.600000E-01  4.600000E-01  4.600000E-01  4.600000E-01  4.600000E-01  4.600000E-01  4.600000E-01  4.600000E-01  4.600000E-01  4.600000E-01
 4.600000E-01  4.600000E-01  4.600000E-01  4.600000E-01  4.600000E-01  4.600000E-01  4.600000E-01  4.600000E-01  4.600000E-01  4.600000E-01
 4.600000E-01  4.600000E-01  4.600000E-01  4.600000E-01  4.600000E-01  4.600000E-01  4.600000E-01  4.600000E-01  4.600000E-01  4.600000E-01
 4.600000E-01  4.600000E-01  4.600000E-01  4.600000E-01  4.600000E-01  4.600000E-01  4.600000E-01  4.600000E-01  4.600000E-01  4.600000E-01
 4.600000E-01  4.600000E-01  4.600000E-01  4.600000E-01  4.600000E-01  4.600000E-01  4.600000E-01  4.600000E-01  4.600000E-01  4.600000E-01
 4.600000E-01  4.600000E-01  4.600000E-01  4.600000E-01  4.600000E-01  4.600000E-01  4.600000E-01  4.600000E-01  4.600000E-01  4.600000E-01
 4.600000E-01  4.600000E-01  4.600000E-01  4.600000E-01  4.600000E-01  4.600000E-01  4.600000E-01  4.600000E-01  4.600000E-01  4.600000E-01
 4.600000E-01  4.600000E-01  4.600000E-01  4.600000E-01  4.600000E-01  4.600000E-01  4.600000E-01  4.600000E-01  4.600000E-01  4.600000E-01
 4.600000E-01  4.600000E-01  4.600000E-01  4.600000E-01  4.600000E-01  4.600000E-01  4.600000E-01  4.600000E-01  4.600000E-01  4.600000E-01
 4.600000E-01  4.600000E-01  4.600000E-01  4.600000E-01  4.600000E-01  4.600000E-01  4.600000E-01  4.600000E-01  4.600000E-01  4.600000E-01
 4.600000E-01  4.600000E-01  4.600000E-01  4.600000E-01  4.600000E-01  4.600000E-01  4.600000E-01  4.600000E-01  4.600000E-01  4.600000E-01
 4.600000E-01  4.600000E-01  4.600000E-01  4.600000E-01  4.600000E-01  4.600000E-01  4.600000E-01  4.600000E-01  4.600000E-01  4.600000E-01
 4.600000E-01  4.600000E-01  4.600000E-01  4.600000E-01  4.600000E-01  4.600000E-01  4.600000E-01  4.600000E-01  4.600000E-01  4.600000E-01
 4.600000E-01  4.600000E-01  4.600000E-01  4.600000E-01  4.600000E-01  4.600000E-01  4.600000E-01  4.600000E-01  4.600000E-01  4.600000E-01


SCALARS Permeability         float 1
LOOKUP_TABLE default
 1.000000E-12  1.000000E-12  1.000000E-12  1.000000E-12  1.000000E-12  1.000000E-12  1.000000E-12  1.000000E-12  1.000000E-12  1.000000E-12
 1.000000E-12  1.000000E-12  1.000000E-12  1.000000E-12  1.000000E-12  1.000000E-12  1.000000E-12  1.000000E-12  1.000000E-12  1.000000E-12
 1.000000E-12  1.000000E-12  1.000000E-12  1.000000E-12  1.000000E-12  1.000000E-12  1.000000E-12  1.000000E-12  1.000000E-12  1.000000E-12
 1.000000E-12  1.000000E-12  1.000000E-12  1.000000E-12  1.000000E-12  1.000000E-12  1.000000E-12  1.000000E-12  1.000000E-12  1.000000E-12
 1.000000E-12  1.000000E-12  1.000000E-12  1.000000E-12  1.000000E-12  1.000000E-12  1.000000E-12  1.000000E-12  1.000000E-12  1.000000E-12
 1.000000E-12  1.000000E-12  1.000000E-12  1.000000E-12  1.000000E-12  1.000000E-12  1.000000E-12  1.000000E-12  1.000000E-12  1.000000E-12
 1.000000E-12  1.000000E-12  1.000000E-12  1.000000E-12  1.000000E-12  1.000000E-12  1.000000E-12  1.000000E-12  1.000000E-12  1.000000E-12
 1.000000E-12  1.000000E-12  1.000000E-12  1.000000E-12  1.000000E-12  1.000000E-12  1.000000E-12  1.000000E-12  1.000000E-12  1.000000E-12
 1.000000E-12  1.000000E-12  1.000000E-12  1.000000E-12  1.000000E-12  1.000000E-12  1.000000E-12  1.000000E-12  1.000000E-12  1.000000E-12
 1.000000E-12  1.000000E-12  1.000000E-12  1.000000E-12  1.000000E-12  1.000000E-12  1.000000E-12  1.000000E-12  1.000000E-12  1.000000E-12
 1.000000E-12  1.000000E-12  1.000000E-12  1.000000E-12  1.000000E-12  1.000000E-12  1.000000E-12  1.000000E-12  1.000000E-12  1.000000E-12
 1.000000E-12  1.000000E-12  1.000000E-12  1.000000E-12  1.000000E-12  1.000000E-12  1.000000E-12  1.000000E-12  1.000000E-12  1.000000E-12
 1.000000E-12  1.000000E-12  1.000000E-12  1.000000E-12  1.000000E-12  1.000000E-12  1.000000E-12  1.000000E-12  1.000000E-12  1.000000E-12
 1.000000E-12  1.000000E-12  1.000000E-12  1.000000E-12  1.000000E-12  1.000000E-12  1.000000E-12  1.000000E-12  1.000000E-12  1.000000E-12
 1.000000E-12  1.000000E-12  1.000000E-12  1.000000E-12  1.000000E-12  1.000000E-12  1.000000E-12  1.000000E-12  1.000000E-12  1.000000E-12
 1.000000E-12  1.000000E-12  1.000000E-12  1.000000E-12  1.000000E-12  1.000000E-12  1.000000E-12  1.000000E-12  1.000000E-12  1.000000E-12
 1.000000E-12  1.000000E-12  1.000000E-12  1.000000E-12  1.000000E-12  1.000000E-12  1.000000E-12  1.000000E-12  1.000000E-12  1.000000E-12
 1.000000E-12  1.000000E-12  1.000000E-12  1.000000E-12  1.000000E-12  1.000000E-12  1.000000E-12  1.000000E-12  1.000000E-12  1.000000E-12
 1.000000E-12  1.000000E-12  1.000000E-12  1.000000E-12  1.000000E-12  1.000000E-12  1.000000E-12  1.000000E-12  1.000000E-12  1.000000E-12
 1.000000E-12  1.000000E-12  1.000000E-12  1.000000E-12  1.000000E-12  1.000000E-12  1.000000E-12  1.000000E-12  1.000000E-12  1.000000E-12


SCALARS Liquid_Pressure      float 1
LOOKUP_TABLE default
 7.501887E+06  7.501887E+06  7.501886E+06  7.501884E+06  7.501883E+06  7.501881E+06  7.501881E+06  7.501880E+06  7.501880E+06  7.501879E+06
 7.501788E+06  7.501788E+06  7.501788E+06  7.501788E+06  7.501788E+06  7.501788E+06  7.501788E+06  7.501788E+06  7.501788E+06  7.501788E+06
 7.501695E+06  7.501695E+06  7.501695E+06  7.501695E+06  7.501695E+06  7.501695E+06  7.501695E+06  7.501695E+06  7.501695E+06  7.501695E+06
 7.501602E+06  7.501602E+06  7.501602E+06  7.501602E+06  7.501602E+06  7.501602E+06  7.501602E+06  7.501602E+06  7.501602E+06  7.501602E+06
 7.501509E+06  7.501509E+06  7.501509E+06  7.501509E+06  7.501509E+06  7.501509E+06  7.501509E+06  7.501509E+06  7.501509E+06  7.501509E+06
 7.501416E+06  7.501416E+06  7.501416E+06  7.501416E+06  7.501416E+06  7.501416E+06  7.501416E+06  7.501416E+06  7.501416E+06  7.501416E+06
 7.501323E+06  7.501323E+06  7.501323E+06  7.501323E+06  7.501323E+06  7.501323E+06  7.501323E+06  7.501323E+06  7.501323E+06  7.501323E+06
 7.501230E+06  7.501230E+06  7.501230E+06  7.501230E+06  7.501230E+06  7.501230E+06  7.501230E+06  7.501230E+06  7.501230E+06  7.501230E+06
 7.501137E+06  7.501137E+06  7.501137E+06  7.501137E+06  7.501137E+06  7.501137E+06  7.501137E+06  7.501137E+06  7.501137E+06  7.501137E+06
 7.501045E+06  7.501045E+06  7.501045E+06  7.501045E+06  7.501045E+06  7.501045E+06  7.501045E+06  7.501045E+06  7.501045E+06  7.501045E+06
 7.500952E+06  7.500952E+06  7.500952E+06  7.500952E+06  7.500952E+06  7.500952E+06  7.500952E+06  7.500952E+06  7.500952E+06  7.500952E+06
 7.500859E+06  7.500859E+06  7.500859E+06  7.500859E+06  7.500859E+06  7.500859E+06  7.500859E+06  7.500859E+06  7.500859E+06  7.500859E+06
 7.500766E+06  7.500766E+06  7.500766E+06  7.500766E+06  7.500766E+06  7.500766E+06  7.500766E+06  7.500766E+06  7.500766E+06  7.500766E+06
 7.500673E+06  7.500673E+06  7.500673E+06  7.500673E+06  7.500673E+06  7.500673E+06  7.500673E+06  7.500673E+06  7.500673E+06  7.500673E+06
 7.500580E+06  7.500580E+06  7.500580E+06  7.500580E+06  7.500580E+06  7.500580E+06  7.500580E+06  7.500580E+06  7.500580E+06  7.500580E+06
 7.500487E+06  7.500487E+06  7.500487E+06  7.500487E+06  7.500487E+06  7.500487E+06  7.500487E+06  7.500487E+06  7.500487E+06  7.500487E+06
 7.500394E+06  7.500394E+06  7.500394E+06  7.500394E+06  7.500394E+06  7.500394E+06  7.500394E+06  7.500394E+06  7.500394E+06  7.500394E+06
 7.500301E+06  7.500301E+06  7.500301E+06  7.500301E+06  7.500301E+06  7.500301E+06  7.500301E+06  7.500301E+06  7.500301E+06  7.500301E+06
 7.500208E+06  7.500208E+06  7.500208E+06  7.500208E+06  7.500208E+06  7.500208E+06  7.500208E+06  7.500208E+06  7.500208E+06  7.500208E+06
 7.500109E+06  7.500110E+06  7.500110E+06  7.500112E+06  7.500114E+06  7.500115E+06  7.500116E+06  7.500116E+06  7.500117E+06  7.500117E+06


SCALARS Temperature          float 1
LOOKUP_TABLE default
 1.500000E+02  1.500000E+02  1.500000E+02  1.500000E+02  1.500000E+02  1.500000E+02  1.500000E+02  1.500000E+02  1.500000E+02  1.500000E+02
 1.500000E+02  1.500000E+02  1.500000E+02  1.500000E+02  1.500000E+02  1.500000E+02  1.500000E+02  1.500000E+02  1.500000E+02  1.500000E+02
 1.500000E+02  1.500000E+02  1.500000E+02  1.500000E+02  1.500000E+02  1.500000E+02  1.500000E+02  1.500000E+02  1.500000E+02  1.500000E+02
 1.500001E+02  1.500001E+02  1.500001E+02  1.500001E+02  1.500001E+02  1.500001E+02  1.500001E+02  1.500001E+02  1.500001E+02  1.500001E+02
 1.500001E+02  1.500001E+02  1.500001E+02  1.500001E+02  1.500001E+02  1.500001E+02  1.500001E+02  1.500001E+02  1.500001E+02  1.500001E+02
 1.500001E+02  1.500001E+02  1.500001E+02  1.500001E+02  1.500001E+02  1.500001E+02  1.500001E+02  1.500001E+02  1.500001E+02  1.500001E+02
 1.500001E+02  1.500001E+02  1.500001E+02  1.500001E+02  1.500001E+02  1.500001E+02  1.500001E+02  1.500001E+02  1.500001E+02  1.500001E+02
 1.500001E+02  1.500001E+02  1.500001E+02  1.500001E+02  1.500001E+02  1.500001E+02  1.500001E+02  1.500001E+02  1.500001E+02  1.500001E+02
 1.500001E+02  1.500001E+02  1.500001E+02  1.500001E+02  1.500001E+02  1.500001E+02  1.500001E+02  1.500001E+02  1.500001E+02  1.500001E+02
 1.500001E+02  1.500001E+02  1.500001E+02  1.500001E+02  1.500001E+02  1.500001E+02  1.500001E+02  1.500001E+02  1.500001E+02  1.500001E+02
 1.500002E+02  1.500002E+02  1.500002E+02  1.500002E+02  1.500002E+02  1.500002E+02  1.500002E+02  1.500002E+02  1.500002E+02  1.500002E+02
 1.500002E+02  1.500002E+02  1.500002E+02  1.500002E+02  1.500002E+02  1.500002E+02  1.500002E+02  1.500002E+02  1.500002E+02  1.500002E+02
 1.500002E+02  1.500002E+02  1.500002E+02  1.500002E+02  1.500002E+02  1.500002E+02  1.500002E+02  1.500002E+02  1.500002E+02  1.500002E+02
 1.500002E+02  1.500002E+02  1.500002E+02  1.500002E+02  1.500002E+02  1.500002E+02  1.500002E+02  1.500002E+02  1.500002E+02  1.500002E+02
 1.500002E+02  1.500002E+02  1.500002E+02  1.500002E+02  1.500002E+02  1.500002E+02  1.500002E+02  1.500002E+02  1.500002E+02  1.500002E+02
 1.500002E+02  1.500002E+02  1.500002E+02  1.500002E+02  1.500002E+02  1.500002E+02  1.500002E+02  1.500002E+02  1.500002E+02  1.500002E+02
 1.500002E+02  1.500002E+02  1.500002E+02  1.500002E+02  1.500002E+02  1.500002E+02  1.500002E+02  1.500002E+02  1.500002E+02  1.500002E+02
 1.500002E+02  1.500002E+02  1.500002E+02  1.500002E+02  1.500002E+02  1.500002E+02  1.500002E+02  1.500002E+02  1.500002E+02  1.500002E+02
 1.500002E+02  1.500002E+02  1.500002E+02  1.500002E+02  1.500002E+02  1.500002E+02  1.500002E+02  1.500002E+02  1.500002E+02  1.500002E+02
 1.500001E+02  1.500001E+02  1.500001E+02  1.500001E+02  1.500001E+02  1.500002E+02  1.500002E+02  1.500002E+02  1.500002E+02  1.500002E+02


SCALARS pH                   float 1
LOOKUP_TABLE default
 4.734641E+00  4.734642E+00  4.734643E+00  4.734738E+00  4.744349E+00  4.759046E+00  4.782277E+00  4.821587E+00  4.895954E+00  5.037702E+00
 4.830577E+00  4.832131E+00  4.835348E+00  4.841429E+00  4.859363E+00  4.884323E+00  4.918298E+00  4.967873E+00  5.046831E+00  5.160950E+00
 4.972541E+00  4.974315E+00  4.978111E+00  4.985703E+00  5.004515E+00  5.030412E+00  5.064541E+00  5.112055E+00  5.181573E+00  5.267023E+00
 5.112255E+00  5.113894E+00  5.117533E+00  5.125025E+00  5.141723E+00  5.164765E+00  5.194942E+00  5.236238E+00  5.293786E+00  5.357434E+00
 5.233536E+00  5.234969E+00  5.238246E+00  5.245048E+00  5.259086E+00  5.278646E+00  5.304425E+00  5.339520E+00  5.386758E+00  5.434993E+00
 5.335167E+00  5.336420E+00  5.339348E+00  5.345400E+00  5.357189E+00  5.373792E+00  5.395885E+00  5.425868E+00  5.465002E+00  5.502385E+00
 5.420623E+00  5.421739E+00  5.424384E+00  5.429786E+00  5.439850E+00  5.454153E+00  5.473355E+00  5.499291E+00  5.532142E+00  5.561754E+00
 5.493596E+00  5.494611E+00  5.497032E+00  5.501904E+00  5.510663E+00  5.523200E+00  5.540143E+00  5.562863E+00  5.590799E+00  5.614720E+00
 5.556982E+00  5.557922E+00  5.560167E+00  5.564608E+00  5.572370E+00  5.583533E+00  5.598683E+00  5.618806E+00  5.642838E+00  5.662497E+00
 5.612903E+00  5.613786E+00  5.615889E+00  5.619978E+00  5.626962E+00  5.637037E+00  5.650734E+00  5.668722E+00  5.689604E+00  5.706005E+00
 5.662900E+00  5.663737E+00  5.665724E+00  5.669522E+00  5.675888E+00  5.685082E+00  5.697576E+00  5.713779E+00  5.732084E+00  5.745948E+00
 5.708105E+00  5.708907E+00  5.710795E+00  5.714350E+00  5.720214E+00  5.728681E+00  5.740162E+00  5.754850E+00  5.771019E+00  5.782874E+00
 5.749368E+00  5.750139E+00  5.751945E+00  5.755294E+00  5.760743E+00  5.768600E+00  5.779212E+00  5.792598E+00  5.806977E+00  5.817219E+00
 5.787335E+00  5.788082E+00  5.789815E+00  5.792987E+00  5.798088E+00  5.805424E+00  5.815280E+00  5.827537E+00  5.840401E+00  5.849329E+00
 5.822510E+00  5.823236E+00  5.824906E+00  5.827925E+00  5.832729E+00  5.839613E+00  5.848805E+00  5.860073E+00  5.871643E+00  5.879490E+00
 5.855292E+00  5.855999E+00  5.857613E+00  5.860498E+00  5.865045E+00  5.871533E+00  5.880136E+00  5.890529E+00  5.900988E+00  5.907934E+00
 5.886000E+00  5.886691E+00  5.888255E+00  5.891022E+00  5.895345E+00  5.901483E+00  5.909557E+00  5.919174E+00  5.928668E+00  5.934856E+00
 5.914891E+00  5.915579E+00  5.917119E+00  5.919806E+00  5.923955E+00  5.929793E+00  5.937385E+00  5.946281E+00  5.954898E+00  5.960425E+00
 5.942241E+00  5.943244E+00  5.945252E+00  5.948383E+00  5.952724E+00  5.958379E+00  5.965290E+00  5.972989E+00  5.980220E+00  5.984881E+00
 5.982570E+00  5.987136E+00  5.991190E+00  5.994294E+00  5.996521E+00  5.999121E+00  6.002018E+00  6.005040E+00  6.007865E+00  6.009966E+00


SCALARS Total_H+             float 1
LOOKUP_TABLE default
-1.694860E-04 -1.694860E-04 -1.694861E-04 -1.694933E-04 -1.702090E-04 -1.712934E-04 -1.729846E-04 -1.757944E-04 -1.809998E-04 -1.909652E-04
-1.764298E-04 -1.765394E-04 -1.767660E-04 -1.771938E-04 -1.784505E-04 -1.801909E-04 -1.825525E-04 -1.860080E-04 -1.916261E-04 -2.002871E-04
-1.863353E-04 -1.864597E-04 -1.867263E-04 -1.872604E-04 -1.885904E-04 -1.904400E-04 -1.929192E-04 -1.964726E-04 -2.019531E-04 -2.092990E-04
-1.964879E-04 -1.966130E-04 -1.968914E-04 -1.974674E-04 -1.987656E-04 -2.005925E-04 -2.030535E-04 -2.065630E-04 -2.117693E-04 -2.180312E-04
-2.063280E-04 -2.064525E-04 -2.067382E-04 -2.073349E-04 -2.085831E-04 -2.103608E-04 -2.127768E-04 -2.162098E-04 -2.211193E-04 -2.265134E-04
-2.157746E-04 -2.158996E-04 -2.161927E-04 -2.168024E-04 -2.180058E-04 -2.197369E-04 -2.221091E-04 -2.254611E-04 -2.300828E-04 -2.347802E-04
-2.248635E-04 -2.249903E-04 -2.252916E-04 -2.259111E-04 -2.270793E-04 -2.287724E-04 -2.311076E-04 -2.343799E-04 -2.387311E-04 -2.428636E-04
-2.336496E-04 -2.337793E-04 -2.340896E-04 -2.347176E-04 -2.358595E-04 -2.375231E-04 -2.398274E-04 -2.430218E-04 -2.471217E-04 -2.507908E-04
-2.421835E-04 -2.423169E-04 -2.426365E-04 -2.432724E-04 -2.443954E-04 -2.460366E-04 -2.483143E-04 -2.514321E-04 -2.552992E-04 -2.585841E-04
-2.505065E-04 -2.506443E-04 -2.509735E-04 -2.516170E-04 -2.527267E-04 -2.543509E-04 -2.566048E-04 -2.596467E-04 -2.632988E-04 -2.662616E-04
-2.586520E-04 -2.587945E-04 -2.591332E-04 -2.597843E-04 -2.608852E-04 -2.624966E-04 -2.647280E-04 -2.676946E-04 -2.711482E-04 -2.738384E-04
-2.666464E-04 -2.667939E-04 -2.671421E-04 -2.678008E-04 -2.688962E-04 -2.704977E-04 -2.727071E-04 -2.755990E-04 -2.788693E-04 -2.813267E-04
-2.745111E-04 -2.746637E-04 -2.750213E-04 -2.756876E-04 -2.767802E-04 -2.783738E-04 -2.805613E-04 -2.833791E-04 -2.864800E-04 -2.887370E-04
-2.822636E-04 -2.824213E-04 -2.827880E-04 -2.834620E-04 -2.845538E-04 -2.861409E-04 -2.883059E-04 -2.910504E-04 -2.939949E-04 -2.960781E-04
-2.899180E-04 -2.900808E-04 -2.904565E-04 -2.911382E-04 -2.922306E-04 -2.938121E-04 -2.959539E-04 -2.986262E-04 -3.014261E-04 -3.033573E-04
-2.974862E-04 -2.976542E-04 -2.980386E-04 -2.987281E-04 -2.998221E-04 -3.013984E-04 -3.035162E-04 -3.061176E-04 -3.087834E-04 -3.105811E-04
-3.049783E-04 -3.051514E-04 -3.055445E-04 -3.062420E-04 -3.073388E-04 -3.089102E-04 -3.110031E-04 -3.135346E-04 -3.160759E-04 -3.177551E-04
-3.124021E-04 -3.125832E-04 -3.129900E-04 -3.137023E-04 -3.148086E-04 -3.163789E-04 -3.184452E-04 -3.209013E-04 -3.233169E-04 -3.248856E-04
-3.197812E-04 -3.200585E-04 -3.206152E-04 -3.214868E-04 -3.227034E-04 -3.243019E-04 -3.262772E-04 -3.285058E-04 -3.306263E-04 -3.320076E-04
-3.313199E-04 -3.326778E-04 -3.338927E-04 -3.348285E-04 -3.355029E-04 -3.362939E-04 -3.371792E-04 -3.381078E-04 -3.389801E-04 -3.396316E-04


SCALARS Total_SiO2(aq)       float 1
LOOKUP_TABLE default
 1.405826E-02  1.405826E-02  1.405826E-02  1.405825E-02  1.405683E-02  1.405485E-02  1.405200E-02  1.404763E-02  1.403990E-02  1.402433E-02
 1.404717E-02  1.404701E-02  1.404668E-02  1.404605E-02  1.404407E-02  1.404135E-02  1.403767E-02  1.403223E-02  1.402306E-02  1.400795E-02
 1.403200E-02  1.403180E-02  1.403138E-02  1.403051E-02  1.402832E-02  1.402521E-02  1.402095E-02  1.401463E-02  1.400440E-02  1.399005E-02
 1.401486E-02  1.401463E-02  1.401412E-02  1.401305E-02  1.401063E-02  1.400716E-02  1.400234E-02  1.399522E-02  1.398423E-02  1.397067E-02
 1.399597E-02  1.399571E-02  1.399511E-02  1.399384E-02  1.399121E-02  1.398739E-02  1.398206E-02  1.397422E-02  1.396271E-02  1.394994E-02
 1.397551E-02  1.397522E-02  1.397452E-02  1.397307E-02  1.397024E-02  1.396610E-02  1.396028E-02  1.395185E-02  1.394002E-02  1.392800E-02
 1.395366E-02  1.395333E-02  1.395253E-02  1.395091E-02  1.394790E-02  1.394346E-02  1.393721E-02  1.392827E-02  1.391627E-02  1.390496E-02
 1.393057E-02  1.393020E-02  1.392931E-02  1.392754E-02  1.392434E-02  1.391963E-02  1.391298E-02  1.390363E-02  1.389159E-02  1.388093E-02
 1.390638E-02  1.390597E-02  1.390499E-02  1.390307E-02  1.389970E-02  1.389473E-02  1.388773E-02  1.387804E-02  1.386605E-02  1.385599E-02
 1.388121E-02  1.388076E-02  1.387969E-02  1.387763E-02  1.387410E-02  1.386889E-02  1.386157E-02  1.385163E-02  1.383975E-02  1.383024E-02
 1.385515E-02  1.385466E-02  1.385350E-02  1.385131E-02  1.384762E-02  1.384219E-02  1.383459E-02  1.382446E-02  1.381274E-02  1.380374E-02
 1.382829E-02  1.382776E-02  1.382652E-02  1.382419E-02  1.382036E-02  1.381471E-02  1.380688E-02  1.379661E-02  1.378510E-02  1.377656E-02
 1.380070E-02  1.380013E-02  1.379881E-02  1.379637E-02  1.379238E-02  1.378655E-02  1.377850E-02  1.376815E-02  1.375687E-02  1.374876E-02
 1.377246E-02  1.377185E-02  1.377044E-02  1.376788E-02  1.376376E-02  1.375775E-02  1.374953E-02  1.373914E-02  1.372810E-02  1.372039E-02
 1.374361E-02  1.374296E-02  1.374148E-02  1.373881E-02  1.373456E-02  1.372839E-02  1.372002E-02  1.370963E-02  1.369884E-02  1.369150E-02
 1.371422E-02  1.371353E-02  1.371198E-02  1.370920E-02  1.370482E-02  1.369851E-02  1.369003E-02  1.367966E-02  1.366914E-02  1.366213E-02
 1.368433E-02  1.368361E-02  1.368198E-02  1.367910E-02  1.367460E-02  1.366816E-02  1.365959E-02  1.364927E-02  1.363903E-02  1.363233E-02
 1.365399E-02  1.365322E-02  1.365150E-02  1.364850E-02  1.364386E-02  1.363728E-02  1.362865E-02  1.361845E-02  1.360851E-02  1.360213E-02
 1.362317E-02  1.362196E-02  1.361955E-02  1.361581E-02  1.361061E-02  1.360379E-02  1.359541E-02  1.358601E-02  1.357715E-02  1.357143E-02