# vtk DataFile Version 2.0
PFLOTRAN output
ASCII
DATASET UNSTRUCTURED_GRID
POINTS          462 float
 0.000000E+00  0.000000E+00  0.000000E+00
 6.350000E-04  0.000000E+00  0.000000E+00
 1.270000E-03  0.000000E+00  0.000000E+00
 1.905000E-03  0.000000E+00  0.000000E+00
 2.540000E-03  0.000000E+00  0.000000E+00
 3.175000E-03  0.000000E+00  0.000000E+00
 3.810000E-03  0.000000E+00  0.000000E+00
 4.445000E-03  0.000000E+00  0.000000E+00
 5.080000E-03  0.000000E+00  0.000000E+00
 5.715000E-03  0.000000E+00  0.000000E+00
 6.350000E-03  0.000000E+00  0.000000E+00
 0.000000E+00  1.000000E+00  0.000000E+00
 6.350000E-04  1.000000E+00  0.000000E+00
 1.270000E-03  1.000000E+00  0.000000E+00
 1.905000E-03  1.000000E+00  0.000000E+00
 2.540000E-03  1.000000E+00  0.000000E+00
 3.175000E-03  1.000000E+00  0.000000E+00
 3.810000E-03  1.000000E+00  0.000000E+00
 4.445000E-03  1.000000E+00  0.000000E+00
 5.080000E-03  1.000000E+00  0.000000E+00
 5.715000E-03  1.000000E+00  0.000000E+00
 6.350000E-03  1.000000E+00  0.000000E+00
 0.000000E+00  0.000000E+00  7.580000E-03
 6.350000E-04  0.000000E+00  7.580000E-03
 1.270000E-03  0.000000E+00  7.580000E-03
 1.905000E-03  0.000000E+00  7.580000E-03
 2.540000E-03  0.000000E+00  7.580000E-03
 3.175000E-03  0.000000E+00  7.580000E-03
 3.810000E-03  0.000000E+00  7.580000E-03
 4.445000E-03  0.000000E+00  7.580000E-03
 5.080000E-03  0.000000E+00  7.580000E-03
 5.715000E-03  0.000000E+00  7.580000E-03
 6.350000E-03  0.000000E+00  7.580000E-03
 0.000000E+00  1.000000E+00  7.580000E-03
 6.350000E-04  1.000000E+00  7.580000E-03
 1.270000E-03  1.000000E+00  7.580000E-03
 1.905000E-03  1.000000E+00  7.580000E-03
 2.540000E-03  1.000000E+00  7.580000E-03
 3.175000E-03  1.000000E+00  7.580000E-03
 3.810000E-03  1.000000E+00  7.580000E-03
 4.445000E-03  1.000000E+00  7.580000E-03
 5.080000E-03  1.000000E+00  7.580000E-03
 5.715000E-03  1.000000E+00  7.580000E-03
 6.350000E-03  1.000000E+00  7.580000E-03
 0.000000E+00  0.000000E+00  1.516000E-02
 6.350000E-04  0.000000E+00  1.516000E-02
 1.270000E-03  0.000000E+00  1.516000E-02
 1.905000E-03  0.000000E+00  1.516000E-02
 2.540000E-03  0.000000E+00  1.516000E-02
 3.175000E-03  0.000000E+00  1.516000E-02
 3.810000E-03  0.000000E+00  1.516000E-02
 4.445000E-03  0.000000E+00  1.516000E-02
 5.080000E-03  0.000000E+00  1.516000E-02
 5.715000E-03  0.000000E+00  1.516000E-02
 6.350000E-03  0.000000E+00  1.516000E-02
 0.000000E+00  1.000000E+00  1.516000E-02
 6.350000E-04  1.000000E+00  1.516000E-02
 1.270000E-03  1.000000E+00  1.516000E-02
 1.905000E-03  1.000000E+00  1.516000E-02
 2.540000E-03  1.000000E+00  1.516000E-02
 3.175000E-03  1.000000E+00  1.516000E-02
 3.810000E-03  1.000000E+00  1.516000E-02
 4.445000E-03  1.000000E+00  1.516000E-02
 5.080000E-03  1.000000E+00  1.516000E-02
 5.715000E-03  1.000000E+00  1.516000E-02
 6.350000E-03  1.000000E+00  1.516000E-02
 0.000000E+00  0.000000E+00  2.274000E-02
 6.350000E-04  0.000000E+00  2.274000E-02
 1.270000E-03  0.000000E+00  2.274000E-02
 1.905000E-03  0.000000E+00  2.274000E-02
 2.540000E-03  0.000000E+00  2.274000E-02
 3.175000E-03  0.000000E+00  2.274000E-02
 3.810000E-03  0.000000E+00  2.274000E-02
 4.445000E-03  0.000000E+00  2.274000E-02
 5.080000E-03  0.000000E+00  2.274000E-02
 5.715000E-03  0.000000E+00  2.274000E-02
 6.350000E-03  0.000000E+00  2.274000E-02
 0.000000E+00  1.000000E+00  2.274000E-02
 6.350000E-04  1.000000E+00  2.274000E-02
 1.270000E-03  1.000000E+00  2.274000E-02
 1.905000E-03  1.000000E+00  2.274000E-02
 2.540000E-03  1.000000E+00  2.274000E-02
 3.175000E-03  1.000000E+00  2.274000E-02
 3.810000E-03  1.000000E+00  2.274000E-02
 4.445000E-03  1.000000E+00  2.274000E-02
 5.080000E-03  1.000000E+00  2.274000E-02
 5.715000E-03  1.000000E+00  2.274000E-02
 6.350000E-03  1.000000E+00  2.274000E-02
 0.000000E+00  0.000000E+00  3.032000E-02
 6.350000E-04  0.000000E+00  3.032000E-02
 1.270000E-03  0.000000E+00  3.032000E-02
 1.905000E-03  0.000000E+00  3.032000E-02
 2.540000E-03  0.000000E+00  3.032000E-02
 3.175000E-03  0.000000E+00  3.032000E-02
 3.810000E-03  0.000000E+00  3.032000E-02
 4.445000E-03  0.000000E+00  3.032000E-02
 5.080000E-03  0.000000E+00  3.032000E-02
 5.715000E-03  0.000000E+00  3.032000E-02
 6.350000E-03  0.000000E+00  3.032000E-02
 0.000000E+00  1.000000E+00  3.032000E-02
 6.350000E-04  1.000000E+00  3.032000E-02
 1.270000E-03  1.000000E+00  3.032000E-02
 1.905000E-03  1.000000E+00  3.032000E-02
 2.540000E-03  1.000000E+00  3.032000E-02
 3.175000E-03  1.000000E+00  3.032000E-02
 3.810000E-03  1.000000E+00  3.032000E-02
 4.445000E-03  1.000000E+00  3.032000E-02
 5.080000E-03  1.000000E+00  3.032000E-02
 5.715000E-03  1.000000E+00  3.032000E-02
 6.350000E-03  1.000000E+00  3.032000E-02
 0.000000E+00  0.000000E+00  3.790000E-02
 6.350000E-04  0.000000E+00  3.790000E-02
 1.270000E-03  0.000000E+00  3.790000E-02
 1.905000E-03  0.000000E+00  3.790000E-02
 2.540000E-03  0.000000E+00  3.790000E-02
 3.175000E-03  0.000000E+00  3.790000E-02
 3.810000E-03  0.000000E+00  3.790000E-02
 4.445000E-03  0.000000E+00  3.790000E-02
 5.080000E-03  0.000000E+00  3.790000E-02
 5.715000E-03  0.000000E+00  3.790000E-02
 6.350000E-03  0.000000E+00  3.790000E-02
 0.000000E+00  1.000000E+00  3.790000E-02
 6.350000E-04  1.000000E+00  3.790000E-02
 1.270000E-03  1.000000E+00  3.790000E-02
 1.905000E-03  1.000000E+00  3.790000E-02
 2.540000E-03  1.000000E+00  3.790000E-02
 3.175000E-03  1.000000E+00  3.790000E-02
 3.810000E-03  1.000000E+00  3.790000E-02
 4.445000E-03  1.000000E+00  3.790000E-02
 5.080000E-03  1.000000E+00  3.790000E-02
 5.715000E-03  1.000000E+00  3.790000E-02
 6.350000E-03  1.000000E+00  3.790000E-02
 0.000000E+00  0.000000E+00  4.548000E-02
 6.350000E-04  0.000000E+00  4.548000E-02
 1.270000E-03  0.000000E+00  4.548000E-02
 1.905000E-03  0.000000E+00  4.548000E-02
 2.540000E-03  0.000000E+00  4.548000E-02
 3.175000E-03  0.000000E+00  4.548000E-02
 3.810000E-03  0.000000E+00  4.548000E-02
 4.445000E-03  0.000000E+00  4.548000E-02
 5.080000E-03  0.000000E+00  4.548000E-02
 5.715000E-03  0.000000E+00  4.548000E-02
 6.350000E-03  0.000000E+00  4.548000E-02
 0.000000E+00  1.000000E+00  4.548000E-02
 6.350000E-04  1.000000E+00  4.548000E-02
 1.270000E-03  1.000000E+00  4.548000E-02
 1.905000E-03  1.000000E+00  4.548000E-02
 2.540000E-03  1.000000E+00  4.548000E-02
 3.175000E-03  1.000000E+00  4.548000E-02
 3.810000E-03  1.000000E+00  4.548000E-02
 4.445000E-03  1.000000E+00  4.548000E-02
 5.080000E-03  1.000000E+00  4.548000E-02
 5.715000E-03  1.000000E+00  4.548000E-02
 6.350000E-03  1.000000E+00  4.548000E-02
 0.000000E+00  0.000000E+00  5.306000E-02
 6.350000E-04  0.000000E+00  5.306000E-02
 1.270000E-03  0.000000E+00  5.306000E-02
 1.905000E-03  0.000000E+00  5.306000E-02
 2.540000E-03  0.000000E+00  5.306000E-02
 3.175000E-03  0.000000E+00  5.306000E-02
 3.810000E-03  0.000000E+00  5.306000E-02
 4.445000E-03  0.000000E+00  5.306000E-02
 5.080000E-03  0.000000E+00  5.306000E-02
 5.715000E-03  0.000000E+00  5.306000E-02
 6.350000E-03  0.000000E+00  5.306000E-02
 0.000000E+00  1.000000E+00  5.306000E-02
 6.350000E-04  1.000000E+00  5.306000E-02
 1.270000E-03  1.000000E+00  5.306000E-02
 1.905000E-03  1.000000E+00  5.306000E-02
 2.540000E-03  1.000000E+00  5.306000E-02
 3.175000E-03  1.000000E+00  5.306000E-02
 3.810000E-03  1.000000E+00  5.306000E-02
 4.445000E-03  1.000000E+00  5.306000E-02
 5.080000E-03  1.000000E+00  5.306000E-02
 5.715000E-03  1.000000E+00  5.306000E-02
 6.350000E-03  1.000000E+00  5.306000E-02
 0.000000E+00  0.000000E+00  6.064000E-02
 6.350000E-04  0.000000E+00  6.064000E-02
 1.270000E-03  0.000000E+00  6.064000E-02
 1.905000E-03  0.000000E+00  6.064000E-02
 2.540000E-03  0.000000E+00  6.064000E-02
 3.175000E-03  0.000000E+00  6.064000E-02
 3.810000E-03  0.000000E+00  6.064000E-02
 4.445000E-03  0.000000E+00  6.064000E-02
 5.080000E-03  0.000000E+00  6.064000E-02
 5.715000E-03  0.000000E+00  6.064000E-02
 6.350000E-03  0.000000E+00  6.064000E-02
 0.000000E+00  1.000000E+00  6.064000E-02
 6.350000E-04  1.000000E+00  6.064000E-02
 1.270000E-03  1.000000E+00  6.064000E-02
 1.905000E-03  1.000000E+00  6.064000E-02
 2.540000E-03  1.000000E+00  6.064000E-02
 3.175000E-03  1.000000E+00  6.064000E-02
 3.810000E-03  1.000000E+00  6.064000E-02
 4.445000E-03  1.000000E+00  6.064000E-02
 5.080000E-03  1.000000E+00  6.064000E-02
 5.715000E-03  1.000000E+00  6.064000E-02
 6.350000E-03  1.000000E+00  6.064000E-02
 0.000000E+00  0.000000E+00  6.822000E-02
 6.350000E-04  0.000000E+00  6.822000E-02
 1.270000E-03  0.000000E+00  6.822000E-02
 1.905000E-03  0.000000E+00  6.822000E-02
 2.540000E-03  0.000000E+00  6.822000E-02
 3.175000E-03  0.000000E+00  6.822000E-02
 3.810000E-03  0.000000E+00  6.822000E-02
 4.445000E-03  0.000000E+00  6.822000E-02
 5.080000E-03  0.000000E+00  6.822000E-02
 5.715000E-03  0.000000E+00  6.822000E-02
 6.350000E-03  0.000000E+00  6.822000E-02
 0.000000E+00  1.000000E+00  6.822000E-02
 6.350000E-04  1.000000E+00  6.822000E-02
 1.270000E-03  1.000000E+00  6.822000E-02
 1.905000E-03  1.000000E+00  6.822000E-02
 2.540000E-03  1.000000E+00  6.822000E-02
 3.175000E-03  1.000000E+00  6.822000E-02
 3.810000E-03  1.000000E+00  6.822000E-02
 4.445000E-03  1.000000E+00  6.822000E-02
 5.080000E-03  1.000000E+00  6.822000E-02
 5.715000E-03  1.000000E+00  6.822000E-02
 6.350000E-03  1.000000E+00  6.822000E-02
 0.000000E+00  0.000000E+00  7.580000E-02
 6.350000E-04  0.000000E+00  7.580000E-02
 1.270000E-03  0.000000E+00  7.580000E-02
 1.905000E-03  0.000000E+00  7.580000E-02
 2.540000E-03  0.000000E+00  7.580000E-02
 3.175000E-03  0.000000E+00  7.580000E-02
 3.810000E-03  0.000000E+00  7.580000E-02
 4.445000E-03  0.000000E+00  7.580000E-02
 5.080000E-03  0.000000E+00  7.580000E-02
 5.715000E-03  0.000000E+00  7.580000E-02
 6.350000E-03  0.000000E+00  7.580000E-02
 0.000000E+00  1.000000E+00  7.580000E-02
 6.350000E-04  1.000000E+00  7.580000E-02
 1.270000E-03  1.000000E+00  7.580000E-02
 1.905000E-03  1.000000E+00  7.580000E-02
[...]
CELL_DATA      200
SCALARS Porosity             float 1
LOOKUP_TABLE default
 4.600000E-01  4.600000E-01  4.600000E-01  4.600000E-01  4.600000E-01  4.600000E-01  4.600000E-01  4.600000E-01  4.600000E-01  4.600000E-01
 4.600000E-01  4.600000E-01  4.600000E-01  4.600000E-01  4.600000E-01  4.600000E-01  4.600000E-01  4.600000E-01  4.600000E-01  4.600000E-01
 4.600000E-01  4.600000E-01  4.600000E-01  4.600000E-01  4.600000E-01  4.600000E-01  4.600000E-01  4.600000E-01  4.600000E-01  4.600000E-01
 4.600000E-01  4.600000E-01  4.600000E-01  4.600000E-01  4.600000E-01  4.600000E-01  4.600000E-01  4.600000E-01  4.600000E-01  4.600000E-01
 4.600000E-01  4.600000E-01  4.600000E-01  4.600000E-01  4.600000E-01  4.600000E-01  4.600000E-01  4.600000E-01  4.600000E-01  4.600000E-01
 4.600000E-01  4.600000E-01  4.600000E-01  4.600000E-01  4.600000E-01  4.600000E-01  4.600000E-01  4.600000E-01  4.600000E-01  4.600000E-01
 4.600000E-01  4.600000E-01  4.600000E-01  4.600000E-01  4.600000E-01  4.600000E-01  4.600000E-01  4.600000E-01  4.600000E-01  4.600000E-01
 4.600000E-01  4.600000E-01  4.600000E-01  4.600000E-01  4.600000E-01  4.600000E-01  4.600000E-01  4.600000E-01  4.600000E-01  4.600000E-01
 4.600000E-01  4.600000E-01  4.600000E-01  4.600000E-01  4.600000E-01  4.600000E-01  4.600000E-01  4.600000E-01  4.600000E-01  4.600000E-01
 4.600000E-01  4.600000E-01  4.600000E-01  4.600000E-01  4.600000E-01  4.600000E-01  4.600000E-01  4.600000E-01  4.600000E-01  4.600000E-01
 4.600000E-01  4.600000E-01  4.600000E-01  4.600000E-01  4.600000E-01  4.600000E-01  4.600000E-01  4.600000E-01  4.600000E-01  4.600000E-01
 4.600000E-01  4.600000E-01  4.600000E-01  4.600000E-01  4.600000E-01  4.600000E-01  4.600000E-01  4.600000E-01  4.600000E-01  4.600000E-01
 4.600000E-01  4.600000E-01  4.600000E-01  4.600000E-01  4.600000E-01  4.600000E-01  4.600000E-01  4.600000E-01  4.600000E-01  4.600000E-01
 4.600000E-01  4.600000E-01  4.600000E-01  4.600000E-01  4.600000E-01  4.600000E-01  4.600000E-01  4.600000E-01  4.600000E-01  4.600000E-01
 4.600000E-01  4.600000E-01  4.600000E-01  4.600000E-01  4.600000E-01  4.600000E-01  4.600000E-01  4.600000E-01  4.600000E-01  4.600000E-01
 4.600000E-01  4.600000E-01  4.600000E-01  4.600000E-01  4.600000E-01  4.600000E-01  4.600000E-01  4.600000E-01  4.600000E-01  4.600000E-01
 4.600000E-01  4.600000E-01  4.600000E-01  4.600000E-01  4.600000E-01  4.600000E-01  4.600000E-01  4.600000E-01  4.600000E-01  4.600000E-01
 4.600000E-01  4.600000E-01  4.600000E-01  4.600000E-01  4.600000E-01  4.600000E-01  4.600000E-01  4.600000E-01  4.600000E-01  4.600000E-01
 4.600000E-01  4.600000E-01  4.600000E-01  4.600000E-01  4.600000E-01  4.600000E-01  4.600000E-01  4.600000E-01  4.600000E-01  4.600000E-01
 4.600000E-01  4.600000E-01  4.600000E-01  4.600000E-01  4.600000E-01  4.600000E-01  4.600000E-01  4.600000E-01  4.600000E-01  4.600000E-01


SCALARS Permeability         float 1
LOOKUP_TABLE default
 1.000000E-12  1.000000E-12  1.000000E-12  1.000000E-12  1.000000E-12  1.000000E-12  1.000000E-12  1.000000E-12  1.000000E-12  1.000000E-12
 1.000000E-12  1.000000E-12  1.000000E-12  1.000000E-12  1.000000E-12  1.000000E-12  1.000000E-12  1.000000E-12  1.000000E-12  1.000000E-12
 1.000000E-12  1.000000E-12  1.000000E-12  1.000000E-12  1.000000E-12  1.000000E-12  1.000000E-12  1.000000E-12  1.000000E-12  1.000000E-12
 1.000000E-12  1.000000E-12  1.000000E-12  1.000000E-12  1.000000E-12  1.000000E-12  1.000000E-12  1.000000E-12  1.000000E-12  1.000000E-12
 1.000000E-12  1.000000E-12  1.000000E-12  1.000000E-12  1.000000E-12  1.000000E-12  1.000000E-12  1.000000E-12  1.000000E-12  1.000000E-12
 1.000000E-12  1.000000E-12  1.000000E-12  1.000000E-12  1.000000E-12  1.000000E-12  1.000000E-12  1.000000E-12  1.000000E-12  1.000000E-12
 1.000000E-12  1.000000E-12  1.000000E-12  1.000000E-12  1.000000E-12  1.000000E-12  1.000000E-12  1.000000E-12  1.000000E-12  1.000000E-12
 1.000000E-12  1.000000E-12  1.000000E-12  1.000000E-12  1.000000E-12  1.000000E-12  1.000000E-12  1.000000E-12  1.000000E-12  1.000000E-12
 1.000000E-12  1.000000E-12  1.000000E-12  1.000000E-12  1.000000E-12  1.000000E-12  1.000000E-12  1.000000E-12  1.000000E-12  1.000000E-12
 1.000000E-12  1.000000E-12  1.000000E-12  1.000000E-12  1.000000E-12  1.000000E-12  1.000000E-12  1.000000E-12  1.000000E-12  1.000000E-12
 1.000000E-12  1.000000E-12  1.000000E-12  1.000000E-12  1.000000E-12  1.000000E-12  1.000000E-12  1.000000E-12  1.000000E-12  1.000000E-12
 1.000000E-12  1.000000E-12  1.000000E-12  1.000000E-12  1.000000E-12  1.000000E-12  1.000000E-12  1.000000E-12  1.000000E-12  1.000000E-12
 1.000000E-12  1.000000E-12  1.000000E-12  1.000000E-12  1.000000E-12  1.000000E-12  1.000000E-12  1.000000E-12  1.000000E-12  1.000000E-12
 1.000000E-12  1.000000E-12  1.000000E-12  1.000000E-12  1.000000E-12  1.000000E-12  1.000000E-12  1.000000E-12  1.000000E-12  1.000000E-12
 1.000000E-12  1.000000E-12  1.000000E-12  1.000000E-12  1.000000E-12  1.000000E-12  1.000000E-12  1.000000E-12  1.000000E-12  1.000000E-12
 1.000000E-12  1.000000E-12  1.000000E-12  1.000000E-12  1.000000E-12  1.000000E-12  1.000000E-12  1.000000E-12  1.000000E-12  1.000000E-12
 1.000000E-12  1.000000E-12  1.000000E-12  1.000000E-12  1.000000E-12  1.000000E-12  1.000000E-12  1.000000E-12  1.000000E-12  1.000000E-12
 1.000000E-12  1.000000E-12  1.000000E-12  1.000000E-12  1.000000E-12  1.000000E-12  1.000000E-12  1.000000E-12  1.000000E-12  1.000000E-12
 1.000000E-12  1.000000E-12  1.000000E-12  1.000000E-12  1.000000E-12  1.000000E-12  1.000000E-12  1.000000E-12  1.000000E-12  1.000000E-12
 1.000000E-12  1.000000E-12  1.000000E-12  1.000000E-12  1.000000E-12  1.000000E-12  1.000000E-12  1.000000E-12  1.000000E-12  1.000000E-12


SCALARS Liquid_Pressure      float 1
LOOKUP_TABLE default
 7.501887E+06  7.501887E+06  7.501886E+06  7.501884E+06  7.501883E+06  7.501881E+06  7.501881E+06  7.501880E+06  7.501880E+06  7.501879E+06
 7.501788E+06  7.501788E+06  7.501788E+06  7.501788E+06  7.501788E+06  7.501788E+06  7.501788E+06  7.501788E+06  7.501788E+06  7.501788E+06
 7.501695E+06  7.501695E+06  7.501695E+06  7.501695E+06  7.501695E+06  7.501695E+06  7.501695E+06  7.501695E+06  7.501695E+06  7.501695E+06
 7.501602E+06  7.501602E+06  7.501602E+06  7.501602E+06  7.501602E+06  7.501602E+06  7.501602E+06  7.501602E+06  7.501602E+06  7.501602E+06
 7.501509E+06  7.501509E+06  7.501509E+06  7.501509E+06  7.501509E+06  7.501509E+06  7.501509E+06  7.501509E+06  7.501509E+06  7.501509E+06
 7.501416E+06  7.501416E+06  7.501416E+06  7.501416E+06  7.501416E+06  7.501416E+06  7.501416E+06  7.501416E+06  7.501416E+06  7.501416E+06
 7.501323E+06  7.501323E+06  7.501323E+06  7.501323E+06  7.501323E+06  7.501323E+06  7.501323E+06  7.501323E+06  7.501323E+06  7.501323E+06
 7.501230E+06  7.501230E+06  7.501230E+06  7.501230E+06  7.501230E+06  7.501230E+06  7.501230E+06  7.501230E+06  7.501230E+06  7.501230E+06
 7.501137E+06  7.501137E+06  7.501137E+06  7.501137E+06  7.501137E+06  7.501137E+06  7.501137E+06  7.501137E+06  7.501137E+06  7.501137E+06
 7.501045E+06  7.501045E+06  7.501045E+06  7.501045E+06  7.501045E+06  7.501045E+06  7.501045E+06  7.501045E+06  7.501045E+06  7.501045E+06
 7.500952E+06  7.500952E+06  7.500952E+06  7.500952E+06  7.500952E+06  7.500952E+06  7.500952E+06  7.500952E+06  7.500952E+06  7.500952E+06
 7.500859E+06  7.500859E+06  7.500859E+06  7.500859E+06  7.500859E+06  7.500859E+06  7.500859E+06  7.500859E+06  7.500859E+06  7.500859E+06
 7.500766E+06  7.500766E+06  7.500766E+06  7.500766E+06  7.500766E+06  7.500766E+06  7.500766E+06  7.500766E+06  7.500766E+06  7.500766E+06
 7.500673E+06  7.500673E+06  7.500673E+06  7.500673E+06  7.500673E+06  7.500673E+06  7.500673E+06  7.500673E+06  7.500673E+06  7.500673E+06
 7.500580E+06  7.500580E+06  7.500580E+06  7.500580E+06  7.500580E+06  7.500580E+06  7.500580E+06  7.500580E+06  7.500580E+06  7.500580E+06
 7.500487E+06  7.500487E+06  7.500487E+06  7.500487E+06  7.500487E+06  7.500487E+06  7.500487E+06  7.500487E+06  7.500487E+06  7.500487E+06
 7.500394E+06  7.500394E+06  7.500394E+06  7.500394E+06  7.500394E+06  7.500394E+06  7.500394E+06  7.500394E+06  7.500394E+06  7.500394E+06
 7.500301E+06  7.500301E+06  7.500301E+06  7.500301E+06  7.500301E+06  7.500301E+06  7.500301E+06  7.500301E+06  7.500301E+06  7.500301E+06
 7.500208E+06  7.500208E+06  7.500208E+06  7.500208E+06  7.500208E+06  7.500208E+06  7.500208E+06  7.500208E+06  7.500208E+06  7.500208E+06
 7.500109E+06  7.500110E+06  7.500110E+06  7.500112E+06  7.500114E+06  7.500115E+06  7.500116E+06  7.500116E+06  7.500117E+06  7.500117E+06


SCALARS Temperature          float 1
LOOKUP_TABLE default
 1.500000E+02  1.500000E+02  1.500000E+02  1.500000E+02  1.500000E+02  1.500000E+02  1.500000E+02  1.500000E+02  1.500000E+02  1.500000E+02
 1.500000E+02  1.500000E+02  1.500000E+02  1.500000E+02  1.500000E+02  1.500000E+02  1.500000E+02  1.500000E+02  1.500000E+02  1.500000E+02
 1.500000E+02  1.500000E+02  1.500000E+02  1.500000E+02  1.500000E+02  1.500000E+02  1.500000E+02  1.500000E+02  1.500000E+02  1.500000E+02
 1.500001E+02  1.500001E+02  1.500001E+02  1.500001E+02  1.500001E+02  1.500001E+02  1.500001E+02  1.500001E+02  1.500001E+02  1.500001E+02
 1.500001E+02  1.500001E+02  1.500001E+02  1.500001E+02  1.500001E+02  1.500001E+02  1.500001E+02  1.500001E+02  1.500001E+02  1.500001E+02
 1.500001E+02  1.500001E+02  1.500001E+02  1.500001E+02  1.500001E+02  1.500001E+02  1.500001E+02  1.500001E+02  1.500001E+02  1.500001E+02
 1.500001E+02  1.500001E+02  1.500001E+02  1.500001E+02  1.500001E+02  1.500001E+02  1.500001E+02  1.500001E+02  1.500001E+02  1.500001E+02
 1.500001E+02  1.500001E+02  1.500001E+02  1.500001E+02  1.500001E+02  1.500001E+02  1.500001E+02  1.500001E+02  1.500001E+02  1.500001E+02
 1.500001E+02  1.500001E+02  1.500001E+02  1.500001E+02  1.500001E+02  1.500001E+02  1.500001E+02  1.500001E+02  1.500001E+02  1.500001E+02
 1.500001E+02  1.500001E+02  1.500001E+02  1.500001E+02  1.500001E+02  1.500001E+02  1.500001E+02  1.500001E+02  1.500001E+02  1.500001E+02
 1.500002E+02  1.500002E+02  1.500002E+02  1.500002E+02  1.500002E+02  1.500002E+02  1.500002E+02  1.500002E+02  1.500002E+02  1.500002E+02
 1.500002E+02  1.500002E+02  1.500002E+02  1.500002E+02  1.500002E+02  1.500002E+02  1.500002E+02  1.500002E+02  1.500002E+02  1.500002E+02
 1.500002E+02  1.500002E+02  1.500002E+02  1.500002E+02  1.500002E+02  1.500002E+02  1.500002E+02  1.500002E+02  1.500002E+02  1.500002E+02
 1.500002E+02  1.500002E+02  1.500002E+02  1.500002E+02  1.500002E+02  1.500002E+02  1.500002E+02  1.500002E+02  1.500002E+02  1.500002E+02
 1.500002E+02  1.500002E+02  1.500002E+02  1.500002E+02  1.500002E+02  1.500002E+02  1.500002E+02  1.500002E+02  1.500002E+02  1.500002E+02
 1.500002E+02  1.500002E+02  1.500002E+02  1.500002E+02  1.500002E+02  1.500002E+02  1.500002E+02  1.500002E+02  1.500002E+02  1.500002E+02
 1.500002E+02  1.500002E+02  1.500002E+02  1.500002E+02  1.500002E+02  1.500002E+02  1.500002E+02  1.500002E+02  1.500002E+02  1.500002E+02
 1.500002E+02  1.500002E+02  1.500002E+02  1.500002E+02  1.500002E+02  1.500002E+02  1.500002E+02  1.500002E+02  1.500002E+02  1.500002E+02
 1.500002E+02  1.500002E+02  1.500002E+02  1.500002E+02  1.500002E+02  1.500002E+02  1.500002E+02  1.500002E+02  1.500002E+02  1.500002E+02
 1.500001E+02  1.500001E+02  1.500001E+02  1.500001E+02  1.500001E+02  1.500002E+02  1.500002E+02  1.500002E+02  1.500002E+02  1.500002E+02


SCALARS pH                   float 1
LOOKUP_TABLE default
 4.723736E+00  4.723736E+00  4.723736E+00  4.723749E+00  4.725055E+00  4.726966E+00  4.729848E+00  4.734549E+00  4.743613E+00  4.763592E+00
 4.735603E+00  4.735794E+00  4.736191E+00  4.736946E+00  4.739177E+00  4.742317E+00  4.746699E+00  4.753442E+00  4.765459E+00  4.786313E+00
 4.754161E+00  4.754422E+00  4.754986E+00  4.756124E+00  4.758913E+00  4.762920E+00  4.768553E+00  4.777192E+00  4.791727E+00  4.812803E+00
 4.777193E+00  4.777520E+00  4.778257E+00  4.779783E+00  4.783134E+00  4.788017E+00  4.794933E+00  4.805449E+00  4.822120E+00  4.843079E+00
 4.804571E+00  4.804972E+00  4.805900E+00  4.807827E+00  4.811743E+00  4.817498E+00  4.825687E+00  4.837954E+00  4.856291E+00  4.876810E+00
 4.836119E+00  4.836598E+00  4.837728E+00  4.840048E+00  4.844503E+00  4.851081E+00  4.860450E+00  4.874220E+00  4.893677E+00  4.913439E+00
 4.871424E+00  4.871983E+00  4.873310E+00  4.875995E+00  4.880929E+00  4.888228E+00  4.898603E+00  4.913523E+00  4.933523E+00  4.952249E+00
 4.909837E+00  4.910471E+00  4.911980E+00  4.914977E+00  4.920303E+00  4.928175E+00  4.939315E+00  4.954972E+00  4.974966E+00  4.992442E+00
 4.950530E+00  4.951230E+00  4.952893E+00  4.956136E+00  4.961744E+00  4.970014E+00  4.981645E+00  4.997620E+00  5.017137E+00  5.033231E+00
 4.992593E+00  4.993347E+00  4.995129E+00  4.998544E+00  5.004320E+00  5.012808E+00  5.024659E+00  5.040571E+00  5.059253E+00  5.073915E+00
 5.035144E+00  5.035938E+00  5.037804E+00  5.041318E+00  5.047155E+00  5.055697E+00  5.067526E+00  5.083070E+00  5.100679E+00  5.113930E+00
 5.077419E+00  5.078239E+00  5.080154E+00  5.083705E+00  5.089513E+00  5.097973E+00  5.109588E+00  5.124540E+00  5.140948E+00  5.152859E+00
 5.118817E+00  5.119653E+00  5.121586E+00  5.125124E+00  5.130834E+00  5.139110E+00  5.150371E+00  5.164591E+00  5.179755E+00  5.190428E+00
 5.158917E+00  5.159758E+00  5.161688E+00  5.165176E+00  5.170740E+00  5.178761E+00  5.189576E+00  5.202989E+00  5.216929E+00  5.226480E+00
 5.197455E+00  5.198293E+00  5.200204E+00  5.203616E+00  5.209003E+00  5.216727E+00  5.227044E+00  5.239624E+00  5.252399E+00  5.260948E+00
 5.234296E+00  5.235127E+00  5.237006E+00  5.240326E+00  5.245521E+00  5.252924E+00  5.262723E+00  5.274478E+00  5.286167E+00  5.293830E+00
 5.269399E+00  5.270218E+00  5.272059E+00  5.275281E+00  5.280278E+00  5.287355E+00  5.296632E+00  5.307593E+00  5.318282E+00  5.325164E+00
 5.302782E+00  5.303602E+00  5.305423E+00  5.308572E+00  5.313399E+00  5.320168E+00  5.328930E+00  5.339107E+00  5.348847E+00  5.355023E+00
 5.334584E+00  5.335775E+00  5.338143E+00  5.341810E+00  5.346866E+00  5.353424E+00  5.361396E+00  5.370203E+00  5.378384E+00  5.383603E+00
 5.381464E+00  5.386753E+00  5.391444E+00  5.395028E+00  5.397593E+00  5.400580E+00  5.403893E+00  5.407330E+00  5.410519E+00  5.412873E+00


SCALARS Total_H+             float 1
LOOKUP_TABLE default
-1.686666E-04 -1.686666E-04 -1.686667E-04 -1.686676E-04 -1.687660E-04 -1.689098E-04 -1.691262E-04 -1.694781E-04 -1.701529E-04 -1.716239E-04
-1.695569E-04 -1.695712E-04 -1.696009E-04 -1.696571E-04 -1.698234E-04 -1.700569E-04 -1.703816E-04 -1.708794E-04 -1.717603E-04 -1.732722E-04
-1.709323E-04 -1.709515E-04 -1.709930E-04 -1.710767E-04 -1.712814E-04 -1.715749E-04 -1.719859E-04 -1.726135E-04 -1.736616E-04 -1.751664E-04
-1.726136E-04 -1.726373E-04 -1.726906E-04 -1.728011E-04 -1.730431E-04 -1.733950E-04 -1.738917E-04 -1.746432E-04 -1.758268E-04 -1.773032E-04
-1.745807E-04 -1.746093E-04 -1.746754E-04 -1.748127E-04 -1.750912E-04 -1.754996E-04 -1.760790E-04 -1.769432E-04 -1.782285E-04 -1.796596E-04
-1.768142E-04 -1.768479E-04 -1.769274E-04 -1.770904E-04 -1.774031E-04 -1.778641E-04 -1.785192E-04 -1.794793E-04 -1.808324E-04 -1.822045E-04
-1.792846E-04 -1.793235E-04 -1.794160E-04 -1.796029E-04 -1.799463E-04 -1.804538E-04 -1.811745E-04 -1.822104E-04 -1.835995E-04 -1.849029E-04
-1.819546E-04 -1.819985E-04 -1.821033E-04 -1.823114E-04 -1.826812E-04 -1.832279E-04 -1.840023E-04 -1.850929E-04 -1.864909E-04 -1.877198E-04
-1.847832E-04 -1.848320E-04 -1.849479E-04 -1.851741E-04 -1.855656E-04 -1.861440E-04 -1.869598E-04 -1.880855E-04 -1.894710E-04 -1.906235E-04
-1.877306E-04 -1.877838E-04 -1.879096E-04 -1.881509E-04 -1.885598E-04 -1.891627E-04 -1.900085E-04 -1.911525E-04 -1.925096E-04 -1.935866E-04
-1.907613E-04 -1.908184E-04 -1.909529E-04 -1.912066E-04 -1.916291E-04 -1.922502E-04 -1.931160E-04 -1.942649E-04 -1.955830E-04 -1.965876E-04
-1.938458E-04 -1.939065E-04 -1.940484E-04 -1.943122E-04 -1.947451E-04 -1.953793E-04 -1.962572E-04 -1.974005E-04 -1.986731E-04 -1.996096E-04
-1.969611E-04 -1.970251E-04 -1.971735E-04 -1.974455E-04 -1.978864E-04 -1.985296E-04 -1.994131E-04 -2.005432E-04 -2.017670E-04 -2.026405E-04
-2.000904E-04 -2.001573E-04 -2.003113E-04 -2.005901E-04 -2.010371E-04 -2.016862E-04 -2.025704E-04 -2.036820E-04 -2.048558E-04 -2.056714E-04
-2.032215E-04 -2.032910E-04 -2.034499E-04 -2.037345E-04 -2.041862E-04 -2.048387E-04 -2.057199E-04 -2.068094E-04 -2.079335E-04 -2.086962E-04
-2.063460E-04 -2.064180E-04 -2.065813E-04 -2.068708E-04 -2.073261E-04 -2.079802E-04 -2.088555E-04 -2.099206E-04 -2.109963E-04 -2.117109E-04
-2.094585E-04 -2.095328E-04 -2.097002E-04 -2.099940E-04 -2.104524E-04 -2.111067E-04 -2.119740E-04 -2.130132E-04 -2.140421E-04 -2.147128E-04
-2.125553E-04 -2.126331E-04 -2.128064E-04 -2.131069E-04 -2.135702E-04 -2.142253E-04 -2.150826E-04 -2.160920E-04 -2.170722E-04 -2.177010E-04
-2.156417E-04 -2.157600E-04 -2.159959E-04 -2.163627E-04 -2.168717E-04 -2.175377E-04 -2.183560E-04 -2.192713E-04 -2.201324E-04 -2.206874E-04
-2.204594E-04 -2.210244E-04 -2.215294E-04 -2.219176E-04 -2.221968E-04 -2.225233E-04 -2.228873E-04 -2.232668E-04 -2.236208E-04 -2.238831E-04


SCALARS Total_SiO2(aq)       float 1
LOOKUP_TABLE default
 1.405828E-02  1.405828E-02  1.405828E-02  1.405827E-02  1.405688E-02  1.405494E-02  1.405222E-02  1.404818E-02  1.404144E-02  1.402907E-02
 1.404804E-02  1.404790E-02  1.404762E-02  1.404709E-02  1.404534E-02  1.404297E-02  1.403983E-02  1.403536E-02  1.402821E-02  1.401710E-02
 1.403541E-02  1.403526E-02  1.403494E-02  1.403427E-02  1.403252E-02  1.403007E-02  1.402680E-02  1.402209E-02  1.401478E-02  1.400485E-02
 1.402246E-02  1.402230E-02  1.402195E-02  1.402119E-02  1.401942E-02  1.401690E-02  1.401349E-02  1.400856E-02  1.400117E-02  1.399222E-02
 1.400925E-02  1.400908E-02  1.400869E-02  1.400784E-02  1.400604E-02  1.400345E-02  1.399987E-02  1.399473E-02  1.398732E-02  1.397916E-02
 1.399574E-02  1.399555E-02  1.399511E-02  1.399419E-02  1.399234E-02  1.398965E-02  1.398591E-02  1.398056E-02  1.397316E-02  1.396566E-02
 1.398186E-02  1.398166E-02  1.398117E-02  1.398017E-02  1.397826E-02  1.397546E-02  1.397155E-02  1.396601E-02  1.395863E-02  1.395168E-02
 1.396759E-02  1.396736E-02  1.396683E-02  1.396574E-02  1.396376E-02  1.396084E-02  1.395675E-02  1.395103E-02  1.394370E-02  1.393721E-02
 1.395287E-02  1.395263E-02  1.395204E-02  1.395087E-02  1.394881E-02  1.394576E-02  1.394149E-02  1.393560E-02  1.392834E-02  1.392224E-02
 1.393768E-02  1.393741E-02  1.393677E-02  1.393552E-02  1.393337E-02  1.393019E-02  1.392574E-02  1.391971E-02  1.391252E-02  1.390676E-02
 1.392201E-02  1.392171E-02  1.392102E-02  1.391969E-02  1.391744E-02  1.391412E-02  1.390950E-02  1.390334E-02  1.389624E-02  1.389078E-02
 1.390583E-02  1.390551E-02  1.390476E-02  1.390335E-02  1.390100E-02  1.389755E-02  1.389276E-02  1.388650E-02  1.387949E-02  1.387430E-02
 1.388916E-02  1.388882E-02  1.388801E-02  1.388651E-02  1.388407E-02  1.388048E-02  1.387554E-02  1.386920E-02  1.386229E-02  1.385733E-02
 1.387200E-02  1.387163E-02  1.387076E-02  1.386919E-02  1.386664E-02  1.386292E-02  1.385784E-02  1.385143E-02  1.384464E-02  1.383989E-02
 1.385435E-02  1.385395E-02  1.385304E-02  1.385138E-02  1.384873E-02  1.384489E-02  1.383969E-02  1.383323E-02  1.382655E-02  1.382200E-02
 1.383624E-02  1.383582E-02  1.383485E-02  1.383311E-02  1.383037E-02  1.382641E-02  1.382109E-02  1.381461E-02  1.380805E-02  1.380368E-02
 1.381769E-02  1.381724E-02  1.381621E-02  1.381440E-02  1.381156E-02  1.380749E-02  1.380208E-02  1.379558E-02  1.378915E-02  1.378495E-02
 1.379871E-02  1.379822E-02  1.379712E-02  1.379522E-02  1.379227E-02  1.378808E-02  1.378260E-02  1.377613E-02  1.376985E-02  1.376581E-02
 1.377927E-02  1.377849E-02  1.377695E-02  1.377455E-02  1.377121E-02  1.376685E-02  1.376149E-02  1.375549E-02  1.374985E-02  1.374622E-02