# vtk DataFile Version 2.0
PFLOTRAN output
ASCII
DATASET UNSTRUCTURED_GRID
POINTS           84 float
 0.000000E+00  0.000000E+00  0.000000E+00
 7.580000E-03  0.000000E+00  0.000000E+00
 1.516000E-02  0.000000E+00  0.000000E+00
 2.274000E-02  0.000000E+00  0.000000E+00
 3.032000E-02  0.000000E+00  0.000000E+00
 3.790000E-02  0.000000E+00  0.000000E+00
 4.548000E-02  0.000000E+00  0.000000E+00
 5.306000E-02  0.000000E+00  0.000000E+00
 6.064000E-02  0.000000E+00  0.000000E+00
 6.822000E-02  0.000000E+00  0.000000E+00
 7.580000E-02  0.000000E+00  0.000000E+00
 8.338000E-02  0.000000E+00  0.000000E+00
 9.096000E-02  0.000000E+00  0.000000E+00
 9.854000E-02  0.000000E+00  0.000000E+00
 1.061200E-01  0.000000E+00  0.000000E+00
 1.137000E-01  0.000000E+00  0.000000E+00
 1.212800E-01  0.000000E+00  0.000000E+00
 1.288600E-01  0.000000E+00  0.000000E+00
 1.364400E-01  0.000000E+00  0.000000E+00
 1.440200E-01  0.000000E+00  0.000000E+00
 1.516000E-01  0.000000E+00  0.000000E+00
 0.000000E+00  1.125000E-02  0.000000E+00
 7.580000E-03  1.125000E-02  0.000000E+00
 1.516000E-02  1.125000E-02  0.000000E+00
 2.274000E-02  1.125000E-02  0.000000E+00
 3.032000E-02  1.125000E-02  0.000000E+00
 3.790000E-02  1.125000E-02  0.000000E+00
 4.548000E-02  1.125000E-02  0.000000E+00
 5.306000E-02  1.125000E-02  0.000000E+00
 6.064000E-02  1.125000E-02  0.000000E+00
 6.822000E-02  1.125000E-02  0.000000E+00
 7.580000E-02  1.125000E-02  0.000000E+00
 8.338000E-02  1.125000E-02  0.000000E+00
 9.096000E-02  1.125000E-02  0.000000E+00
 9.854000E-02  1.125000E-02  0.000000E+00
 1.061200E-01  1.125000E-02  0.000000E+00
 1.137000E-01  1.125000E-02  0.000000E+00
 1.212800E-01  1.125000E-02  0.000000E+00
 1.288600E-01  1.125000E-02  0.000000E+00
 1.364400E-01  1.125000E-02  0.000000E+00
 1.440200E-01  1.125000E-02  0.000000E+00
 1.516000E-01  1.125000E-02  0.000000E+00
 0.000000E+00  0.000000E+00  1.125000E-02
 7.580000E-03  0.000000E+00  1.125000E-02
 1.516000E-02  0.000000E+00  1.125000E-02
 2.274000E-02  0.000000E+00  1.125000E-02
 3.032000E-02  0.000000E+00  1.125000E-02
 3.790000E-02  0.000000E+00  1.125000E-02
 4.548000E-02  0.000000E+00  1.125000E-02
 5.306000E-02  0.000000E+00  1.125000E-02
 6.064000E-02  0.000000E+00  1.125000E-02
 6.822000E-02  0.000000E+00  1.125000E-02
 7.580000E-02  0.000000E+00  1.125000E-02
 8.338000E-02  0.000000E+00  1.125000E-02
 9.096000E-02  0.000000E+00  1.125000E-02
 9.854000E-02  0.000000E+00  1.125000E-02
 1.061200E-01  0.000000E+00  1.125000E-02
 1.137000E-01  0.000000E+00  1.125000E-02
 1.212800E-01  0.000000E+00  1.125000E-02
 1.288600E-01  0.000000E+00  1.125000E-02
 1.364400E-01  0.000000E+00  1.125000E-02
 1.440200E-01  0.000000E+00  1.125000E-02
 1.516000E-01  0.000000E+00  1.125000E-02
 0.000000E+00  1.125000E-02  1.125000E-02
 7.580000E-03  1.125000E-02  1.125000E-02
 1.516000E-02  1.125000E-02  1.125000E-02
 2.274000E-02  1.125000E-02  1.125000E-02
 3.032000E-02  1.125000E-02  1.125000E-02
 3.790000E-02  1.125000E-02  1.125000E-02
 4.548000E-02  1.125000E-02  1.125000E-02
 5.306000E-02  1.125000E-02  1.125000E-02
 6.064000E-02  1.125000E-02  1.125000E-02
 6.822000E-02  1.125000E-02  1.125000E-02
 7.580000E-02  1.125000E-02  1.125000E-02
 8.338000E-02  1.125000E-02  1.125000E-02
 9.096000E-02  1.125000E-02  1.125000E-02
 9.854000E-02  1.125000E-02  1.125000E-02
 1.061200E-01  1.125000E-02  1.125000E-02
 1.137000E-01  1.125000E-02  1.125000E-02
 1.212800E-01  1.125000E-02  1.125000E-02
 1.288600E-01  1.125000E-02  1.125000E-02
 1.364400E-01  1.125000E-02  1.125000E-02
 1.440200E-01  1.125000E-02  1.125000E-02
 1.516000E-01  1.125000E-02  1.125000E-02
CELLS           20          180
8        0        1       22       21       42       43       64       63
8        1        2       23       22       43       44       65       64
8        2        3       24       23       44       45       66       65
8        3        4       25       24       45       46       67       66
8        4        5       26       25       46       47       68       67
8        5        6       27       26       47       48       69       68
8        6        7       28       27       48       49       70       69
8        7        8       29       28       49       50       71       70
8        8        9       30       29       50       51       72       71
8        9       10       31       30       51       52       73       72
8       10       11       32       31       52       53       74       73
8       11       12       33       32       53       54       75       74
8       12       13       34       33       54       55       76       75
8       13       14       35       34       55       56       77       76
8       14       15       36       35       56       57       78       77
8       15       16       37       36       57       58       79       78
8       16       17       38       37       58       59       80       79
8       17       18       39       38       59       60       81       80
8       18       19       40       39       60       61       82       81
8       19       20       41       40       61       62       83       82

CELL_TYPES           20
12
12
12
12
12
12
12
12
12
12
12
12
12
12
12
12
12
12
12
12

CELL_DATA       20
SCALARS Porosity             float 1
LOOKUP_TABLE default
 9.889334E-01  9.885729E-01  9.882926E-01  9.880613E-01  9.878636E-01  9.876900E-01  9.875344E-01  9.873925E-01  9.872615E-01  9.871389E-01
 9.870230E-01  9.869126E-01  9.868066E-01  9.867041E-01  9.866045E-01  9.865072E-01  9.864117E-01  9.863176E-01  9.862246E-01  9.861326E-01


SCALARS Permeability_X       float 1
LOOKUP_TABLE default
 1.000000E-12  1.000000E-12  1.000000E-12  1.000000E-12  1.000000E-12  1.000000E-12  1.000000E-12  1.000000E-12  1.000000E-12  1.000000E-12
 1.000000E-12  1.000000E-12  1.000000E-12  1.000000E-12  1.000000E-12  1.000000E-12  1.000000E-12  1.000000E-12  1.000000E-12  1.000000E-12


SCALARS Liquid_Pressure      float 1
LOOKUP_TABLE default
 7.500296E+06  7.500281E+06  7.500266E+06  7.500250E+06  7.500235E+06  7.500220E+06  7.500205E+06  7.500190E+06  7.500175E+06  7.500159E+06
 7.500144E+06  7.500129E+06  7.500114E+06  7.500099E+06  7.500083E+06  7.500068E+06  7.500053E+06  7.500038E+06  7.500023E+06  7.500008E+06


SCALARS Temperature          float 1
LOOKUP_TABLE default
 1.500000E+02  1.500000E+02  1.500000E+02  1.499999E+02  1.499999E+02  1.499999E+02  1.499999E+02  1.499999E+02  1.499999E+02  1.499998E+02
 1.499998E+02  1.499998E+02  1.499998E+02  1.499998E+02  1.499998E+02  1.499998E+02  1.499998E+02  1.499999E+02  1.499999E+02  1.500000E+02


SCALARS pH                   float 1
LOOKUP_TABLE default
 4.815865E+00  4.903891E+00  4.982667E+00  5.052505E+00  5.114605E+00  5.170229E+00  5.220479E+00  5.266261E+00  5.308305E+00  5.347196E+00
 5.383407E+00  5.417322E+00  5.449253E+00  5.479459E+00  5.508155E+00  5.535519E+00  5.561701E+00  5.586828E+00  5.611006E+00  5.634265E+00


SCALARS Total_H+             float 1
LOOKUP_TABLE default
-3.687301E-04 -4.180660E-04 -4.702500E-04 -5.242197E-04 -5.793971E-04 -6.354621E-04 -6.922402E-04 -7.496428E-04 -8.076337E-04 -8.662096E-04
-9.253879E-04 -9.851993E-04 -1.045683E-03 -1.106881E-03 -1.168840E-03 -1.231606E-03 -1.295221E-03 -1.359727E-03 -1.425157E-03 -1.491365E-03


SCALARS Total_SiO2(aq)       float 1
LOOKUP_TABLE default
 1.405371E-02  1.404763E-02  1.404111E-02  1.403415E-02  1.402678E-02  1.401901E-02  1.401084E-02  1.400230E-02  1.399340E-02  1.398416E-02
 1.397457E-02  1.396466E-02  1.395443E-02  1.394389E-02  1.393304E-02  1.392189E-02  1.391044E-02  1.389871E-02  1.388669E-02  1.387441E-02


SCALARS Total_Al+++          float 1
LOOKUP_TABLE default
 6.015348E-05  6.015348E-05  6.015348E-05  6.015348E-05  6.015348E-05  6.015348E-05  6.015348E-05  6.015348E-05  6.015348E-05  6.015348E-05
 6.015348E-05  6.015348E-05  6.015348E-05  6.015348E-05  6.015349E-05  6.015349E-05  6.015349E-05  6.015349E-05  6.015349E-05  6.015349E-05


SCALARS Total_Ca++           float 1
LOOKUP_TABLE default
 9.183214E-05  1.165001E-04  1.425921E-04  1.695769E-04  1.971656E-04  2.251981E-04  2.535872E-04  2.822885E-04  3.112839E-04  3.405719E-04
 3.701610E-04  4.000667E-04  4.303083E-04  4.609076E-04  4.918872E-04  5.232700E-04  5.550776E-04  5.873304E-04  6.200457E-04  6.531497E-04


SCALARS Total_Cl-            float 1
LOOKUP_TABLE default
 2.513233E-02  2.513233E-02  2.513233E-02  2.513233E-02  2.513233E-02  2.513233E-02  2.513233E-02  2.513233E-02  2.513233E-02  2.513233E-02
 2.513233E-02  2.513233E-02  2.513233E-02  2.513233E-02  2.513233E-02  2.513233E-02  2.513233E-02  2.513233E-02  2.513233E-02  2.513233E-02


SCALARS Total_CO2(aq)        float 1
LOOKUP_TABLE default
 1.358853E-02  1.361320E-02  1.363929E-02  1.366628E-02  1.369387E-02  1.372190E-02  1.375029E-02  1.377899E-02  1.380798E-02  1.383727E-02
 1.386686E-02  1.389677E-02  1.392701E-02  1.395761E-02  1.398859E-02  1.401997E-02  1.405178E-02  1.408403E-02  1.411674E-02  1.414985E-02


SCALARS Total_Na+            float 1
LOOKUP_TABLE default
 3.122900E-02  3.122900E-02  3.122900E-02  3.122900E-02  3.122900E-02  3.122900E-02  3.122900E-02  3.122900E-02  3.122900E-02  3.122900E-02
 3.122900E-02  3.122900E-02  3.122900E-02  3.122900E-02  3.122900E-02  3.122900E-02  3.122900E-02  3.122900E-02  3.122900E-02  3.122900E-02


SCALARS Total_K+             float 1
LOOKUP_TABLE default
 2.655416E-03  2.655416E-03  2.655416E-03  2.655416E-03  2.655416E-03  2.655416E-03  2.655416E-03  2.655416E-03  2.655416E-03  2.655416E-03
 2.655416E-03  2.655416E-03  2.655416E-03  2.655416E-03  2.655416E-03  2.655416E-03  2.655416E-03  2.655416E-03  2.655415E-03  2.655415E-03


SCALARS Total_Mg++           float 1
LOOKUP_TABLE default
 8.216757E-07  8.216757E-07  8.216757E-07  8.216757E-07  8.216757E-07  8.216757E-07  8.216757E-07  8.216757E-07  8.216757E-07  8.216757E-07
 8.216757E-07  8.216757E-07  8.216757E-07  8.216756E-07  8.216756E-07  8.216756E-07  8.216756E-07  8.216756E-07  8.216756E-07  8.216756E-07


SCALARS Total_Fe++           float 1
LOOKUP_TABLE default
 1.251593E-06  1.251593E-06  1.251593E-06  1.251593E-06  1.251593E-06  1.251593E-06  1.251593E-06  1.251593E-06  1.251593E-06  1.251593E-06
 1.251593E-06  1.251593E-06  1.251593E-06  1.251593E-06  1.251592E-06  1.251592E-06  1.251592E-06  1.251592E-06  1.251592E-06  1.251592E-06


SCALARS Total_Cu++           float 1
LOOKUP_TABLE default
 9.952832E-11  9.952832E-11  9.952832E-11  9.952832E-11  9.952832E-11  9.952832E-11  9.952832E-11  9.952832E-11  9.952832E-11  9.952832E-11
 9.952832E-11  9.952832E-11  9.952832E-11  9.952832E-11  9.952832E-11  9.952832E-11  9.952832E-11  9.952832E-11  9.952832E-11  9.952832E-11


SCALARS Total_SO4--          float 1
LOOKUP_TABLE default
 4.376188E-03  4.376188E-03  4.376188E-03  4.376188E-03  4.376188E-03  4.376188E-03  4.376188E-03  4.376188E-03  4.376188E-03  4.376188E-03
 4.376188E-03  4.376188E-03  4.376188E-03  4.376188E-03  4.376188E-03  4.376188E-03  4.376188E-03  4.376188E-03  4.376188E-03  4.376188E-03


SCALARS Total_Tracer         float 1
LOOKUP_TABLE default
 9.952832E-11  9.952832E-11  9.952832E-11  9.952832E-11  9.952832E-11  9.952832E-11  9.952832E-11  9.952832E-11  9.952832E-11  9.952832E-11
 9.952832E-11  9.952832E-11  9.952832E-11  9.952832E-11  9.952832E-11  9.952832E-11  9.952832E-11  9.952832E-11  9.952832E-11  9.952832E-11


SCALARS Active_Gas_CO2(g)    float 1
LOOKUP_TABLE default
 0.000000E+00  0.000000E+00  0.000000E+00  0.000000E+00  0.000000E+00  0.000000E+00  0.000000E+00  0.000000E+00  0.000000E+00  0.000000E+00
 0.000000E+00  0.000000E+00  0.000000E+00  0.000000E+00  0.000000E+00  0.000000E+00  0.000000E+00  0.000000E+00  0.000000E+00  0.000000E+00


SCALARS HCO3-                float 1
LOOKUP_TABLE default
 1.994297E-04  2.438863E-04  2.919194E-04  3.422582E-04  3.941595E-04  4.471872E-04  5.010870E-04  5.557144E-04  6.109930E-04  6.668892E-04
 7.233972E-04  7.805290E-04  8.383078E-04  8.967638E-04  9.559307E-04  1.015844E-03  1.076537E-03  1.138041E-03  1.200383E-03  1.263417E-03


SCALARS H2SiO4--             float 1
LOOKUP_TABLE default
 5.148492E-13  7.719991E-13  1.109292E-12  1.529654E-12  2.035416E-12  2.628769E-12  3.312034E-12  4.087813E-12  4.959074E-12  5.929194E-12
 7.001993E-12  8.181739E-12  9.473160E-12  1.088144E-11  1.241220E-11  1.407150E-11  1.586577E-11  1.780181E-11  1.988669E-11  2.212155E-11


SCALARS H3SiO4-              float 1
LOOKUP_TABLE default
 1.584434E-06  1.939641E-06  2.324369E-06  2.728598E-06  3.146461E-06  3.574519E-06  4.010767E-06  4.454076E-06  4.903861E-06  5.359884E-06
 5.822133E-06  6.290744E-06  6.765950E-06  7.248048E-06  7.737368E-06  8.234257E-06  8.739061E-06  9.252109E-06  9.773695E-06  1.030267E-05


SCALARS Calcite_VF           float 1
LOOKUP_TABLE default
 1.053612E-02  1.082155E-02  1.104101E-02  1.122067E-02  1.137355E-02  1.150742E-02  1.162739E-02  1.173696E-02  1.183866E-02  1.193434E-02
 1.202540E-02  1.211295E-02  1.219784E-02  1.228076E-02  1.236227E-02  1.244283E-02  1.252283E-02  1.260257E-02  1.268234E-02  1.276214E-02


SCALARS SiO2(am)_VF          float 1
LOOKUP_TABLE default
 5.211026E-04  5.949849E-04  6.552967E-04  7.066004E-04  7.513391E-04  7.910132E-04  8.266206E-04  8.588622E-04  8.882506E-04  9.151724E-04
 9.399269E-04  9.627506E-04  9.838337E-04  1.003331E-03  1.021371E-03  1.038062E-03  1.053492E-03  1.067741E-03  1.080873E-03  1.092918E-03


SCALARS Calcite_Rate         float 1
LOOKUP_TABLE default
-2.954902E-05 -3.281303E-05 -3.469150E-05 -3.586165E-05 -3.664670E-05 -3.721852E-05 -3.767416E-05 -3.807084E-05 -3.844347E-05 -3.881387E-05
-3.919588E-05 -3.959823E-05 -4.002632E-05 -4.048321E-05 -4.097028E-05 -4.148752E-05 -4.203376E-05 -4.260675E-05 -4.320312E-05 -4.381714E-05


SCALARS SiO2(am)_Rate        float 1
LOOKUP_TABLE default
 7.562170E-06  8.100903E-06  8.676863E-06  9.250141E-06  9.806746E-06  1.034241E-05  1.085677E-05  1.135104E-05  1.182701E-05  1.228657E-05
 1.273159E-05  1.316376E-05  1.358463E-05  1.399558E-05  1.439783E-05  1.479244E-05  1.518035E-05  1.556235E-05  1.593912E-05  1.631024E-05


SCALARS Calcite_Area         float 1
LOOKUP_TABLE default
 5.881364E-01  7.690563E-01  9.404700E-01  1.105448E+00  1.265763E+00  1.422965E+00  1.578508E+00  1.733758E+00  1.890002E+00  2.048464E+00
 2.210316E+00  2.376699E+00  2.548739E+00  2.727562E+00  2.914307E+00  3.110142E+00  3.316272E+00  3.533950E+00  3.764480E+00  4.008608E+00


SCALARS SiO2(am)_Area        float 1
LOOKUP_TABLE default
 1.244565E+05  1.190645E+05  1.152890E+05  1.124266E+05  1.101489E+05  1.082759E+05  1.066990E+05  1.053477E+05  1.041739E+05  1.031434E+05
 1.022311E+05  1.014182E+05  1.006899E+05  1.000349E+05  9.944395E+04  9.890970E+04  9.842605E+04  9.798798E+04  9.759128E+04  9.723324E+04


SCALARS Material_ID          int 1
LOOKUP_TABLE default
  1
  1
  1
  1
  1
  1
  1
  1
  1
  1
  1
  1
  1
  1
  1
  1
  1
  1
  1
  1


