# vtk DataFile Version 2.0
PFLOTRAN output
ASCII
DATASET UNSTRUCTURED_GRID
POINTS           84 float
 0.000000E+00  0.000000E+00  0.000000E+00
 7.580000E-03  0.000000E+00  0.000000E+00
 1.516000E-02  0.000000E+00  0.000000E+00
 2.274000E-02  0.000000E+00  0.000000E+00
 3.032000E-02  0.000000E+00  0.000000E+00
 3.790000E-02  0.000000E+00  0.000000E+00
 4.548000E-02  0.000000E+00  0.000000E+00
 5.306000E-02  0.000000E+00  0.000000E+00
 6.064000E-02  0.000000E+00  0.000000E+00
 6.822000E-02  0.000000E+00  0.000000E+00
 7.580000E-02  0.000000E+00  0.000000E+00
 8.338000E-02  0.000000E+00  0.000000E+00
 9.096000E-02  0.000000E+00  0.000000E+00
 9.854000E-02  0.000000E+00  0.000000E+00
 1.061200E-01  0.000000E+00  0.000000E+00
 1.137000E-01  0.000000E+00  0.000000E+00
 1.212800E-01  0.000000E+00  0.000000E+00
 1.288600E-01  0.000000E+00  0.000000E+00
 1.364400E-01  0.000000E+00  0.000000E+00
 1.440200E-01  0.000000E+00  0.000000E+00
 1.516000E-01  0.000000E+00  0.000000E+00
 0.000000E+00  1.125000E-02  0.000000E+00
 7.580000E-03  1.125000E-02  0.000000E+00
 1.516000E-02  1.125000E-02  0.000000E+00
 2.274000E-02  1.125000E-02  0.000000E+00
 3.032000E-02  1.125000E-02  0.000000E+00
 3.790000E-02  1.125000E-02  0.000000E+00
 4.548000E-02  1.125000E-02  0.000000E+00
 5.306000E-02  1.125000E-02  0.000000E+00
 6.064000E-02  1.125000E-02  0.000000E+00
 6.822000E-02  1.125000E-02  0.000000E+00
 7.580000E-02  1.125000E-02  0.000000E+00
 8.338000E-02  1.125000E-02  0.000000E+00
 9.096000E-02  1.125000E-02  0.000000E+00
 9.854000E-02  1.125000E-02  0.000000E+00
 1.061200E-01  1.125000E-02  0.000000E+00
 1.137000E-01  1.125000E-02  0.000000E+00
 1.212800E-01  1.125000E-02  0.000000E+00
 1.288600E-01  1.125000E-02  0.000000E+00
 1.364400E-01  1.125000E-02  0.000000E+00
 1.440200E-01  1.125000E-02  0.000000E+00
 1.516000E-01  1.125000E-02  0.000000E+00
 0.000000E+00  0.000000E+00  1.125000E-02
 7.580000E-03  0.000000E+00  1.125000E-02
 1.516000E-02  0.000000E+00  1.125000E-02
 2.274000E-02  0.000000E+00  1.125000E-02
 3.032000E-02  0.000000E+00  1.125000E-02
 3.790000E-02  0.000000E+00  1.125000E-02
 4.548000E-02  0.000000E+00  1.125000E-02
 5.306000E-02  0.000000E+00  1.125000E-02
 6.064000E-02  0.000000E+00  1.125000E-02
 6.822000E-02  0.000000E+00  1.125000E-02
 7.580000E-02  0.000000E+00  1.125000E-02
 8.338000E-02  0.000000E+00  1.125000E-02
 9.096000E-02  0.000000E+00  1.125000E-02
 9.854000E-02  0.000000E+00  1.125000E-02
 1.061200E-01  0.000000E+00  1.125000E-02
 1.137000E-01  0.000000E+00  1.125000E-02
 1.212800E-01  0.000000E+00  1.125000E-02
 1.288600E-01  0.000000E+00  1.125000E-02
 1.364400E-01  0.000000E+00  1.125000E-02
 1.440200E-01  0.000000E+00  1.125000E-02
 1.516000E-01  0.000000E+00  1.125000E-02
 0.000000E+00  1.125000E-02  1.125000E-02
 7.580000E-03  1.125000E-02  1.125000E-02
 1.516000E-02  1.125000E-02  1.125000E-02
 2.274000E-02  1.125000E-02  1.125000E-02
 3.032000E-02  1.125000E-02  1.125000E-02
 3.790000E-02  1.125000E-02  1.125000E-02
 4.548000E-02  1.125000E-02  1.125000E-02
 5.306000E-02  1.125000E-02  1.125000E-02
 6.064000E-02  1.125000E-02  1.125000E-02
 6.822000E-02  1.125000E-02  1.125000E-02
 7.580000E-02  1.125000E-02  1.125000E-02
 8.338000E-02  1.125000E-02  1.125000E-02
 9.096000E-02  1.125000E-02  1.125000E-02
 9.854000E-02  1.125000E-02  1.125000E-02
 1.061200E-01  1.125000E-02  1.125000E-02
 1.137000E-01  1.125000E-02  1.125000E-02
 1.212800E-01  1.125000E-02  1.125000E-02
 1.288600E-01  1.125000E-02  1.125000E-02
 1.364400E-01  1.125000E-02  1.125000E-02
 1.440200E-01  1.125000E-02  1.125000E-02
 1.516000E-01  1.125000E-02  1.125000E-02
CELLS           20          180
8        0        1       22       21       42       43       64       63
8        1        2       23       22       43       44       65       64
8        2        3       24       23       44       45       66       65
8        3        4       25       24       45       46       67       66
8        4        5       26       25       46       47       68       67
8        5        6       27       26       47       48       69       68
8        6        7       28       27       48       49       70       69
8        7        8       29       28       49       50       71       70
8        8        9       30       29       50       51       72       71
8        9       10       31       30       51       52       73       72
8       10       11       32       31       52       53       74       73
8       11       12       33       32       53       54       75       74
8       12       13       34       33       54       55       76       75
8       13       14       35       34       55       56       77       76
8       14       15       36       35       56       57       78       77
8       15       16       37       36       57       58       79       78
8       16       17       38       37       58       59       80       79
8       17       18       39       38       59       60       81       80
8       18       19       40       39       60       61       82       81
8       19       20       41       40       61       62       83       82

CELL_TYPES           20
12
12
12
12
12
12
12
12
12
12
12
12
12
12
12
12
12
12
12
12

CELL_DATA       20
SCALARS Porosity             float 1
LOOKUP_TABLE default
 9.894155E-01  9.891202E-01  9.888775E-01  9.886687E-01  9.884846E-01  9.883193E-01  9.881690E-01  9.880306E-01  9.879021E-01  9.877817E-01
 9.876681E-01  9.875603E-01  9.874573E-01  9.873585E-01  9.872632E-01  9.871709E-01  9.870812E-01  9.869937E-01  9.869080E-01  9.868241E-01


SCALARS Permeability_X       float 1
LOOKUP_TABLE default
 1.000000E-12  1.000000E-12  1.000000E-12  1.000000E-12  1.000000E-12  1.000000E-12  1.000000E-12  1.000000E-12  1.000000E-12  1.000000E-12
 1.000000E-12  1.000000E-12  1.000000E-12  1.000000E-12  1.000000E-12  1.000000E-12  1.000000E-12  1.000000E-12  1.000000E-12  1.000000E-12


SCALARS Liquid_Pressure      float 1
LOOKUP_TABLE default
 7.500296E+06  7.500281E+06  7.500266E+06  7.500250E+06  7.500235E+06  7.500220E+06  7.500205E+06  7.500190E+06  7.500175E+06  7.500159E+06
 7.500144E+06  7.500129E+06  7.500114E+06  7.500099E+06  7.500083E+06  7.500068E+06  7.500053E+06  7.500038E+06  7.500023E+06  7.500008E+06


SCALARS Temperature          float 1
LOOKUP_TABLE default
 1.500000E+02  1.500000E+02  1.500000E+02  1.500000E+02  1.500000E+02  1.499999E+02  1.499999E+02  1.499999E+02  1.499999E+02  1.499999E+02
 1.499999E+02  1.499999E+02  1.499999E+02  1.499999E+02  1.499999E+02  1.499999E+02  1.499999E+02  1.499999E+02  1.499999E+02  1.500000E+02


SCALARS pH                   float 1
LOOKUP_TABLE default
 4.777784E+00  4.834062E+00  4.888301E+00  4.939548E+00  4.987532E+00  5.032313E+00  5.074104E+00  5.113170E+00  5.149786E+00  5.184211E+00
 5.216683E+00  5.247413E+00  5.276589E+00  5.304375E+00  5.330916E+00  5.356339E+00  5.380757E+00  5.404266E+00  5.426956E+00  5.448844E+00


SCALARS Total_H+             float 1
LOOKUP_TABLE default
-3.498446E-04 -3.782455E-04 -4.086914E-04 -4.406459E-04 -4.737574E-04 -5.077903E-04 -5.425853E-04 -5.780350E-04 -6.140686E-04 -6.506409E-04
-6.877255E-04 -7.253097E-04 -7.633910E-04 -8.019750E-04 -8.410731E-04 -8.807018E-04 -9.208814E-04 -9.616353E-04 -1.002989E-03 -1.044860E-03


SCALARS Total_SiO2(aq)       float 1
LOOKUP_TABLE default
 1.405444E-02  1.404933E-02  1.404400E-02  1.403844E-02  1.403265E-02  1.402663E-02  1.402037E-02  1.401387E-02  1.400715E-02  1.400021E-02
 1.399304E-02  1.398566E-02  1.397807E-02  1.397027E-02  1.396227E-02  1.395406E-02  1.394566E-02  1.393706E-02  1.392826E-02  1.391930E-02


SCALARS Total_Al+++          float 1
LOOKUP_TABLE default
 6.015348E-05  6.015348E-05  6.015348E-05  6.015348E-05  6.015348E-05  6.015348E-05  6.015348E-05  6.015348E-05  6.015348E-05  6.015348E-05
 6.015348E-05  6.015348E-05  6.015348E-05  6.015348E-05  6.015348E-05  6.015348E-05  6.015348E-05  6.015348E-05  6.015348E-05  6.015348E-05


SCALARS Total_Ca++           float 1
LOOKUP_TABLE default
 8.238936E-05  9.658982E-05  1.118128E-04  1.277900E-04  1.443458E-04  1.613622E-04  1.787597E-04  1.964846E-04  2.145014E-04  2.327875E-04
 2.513298E-04  2.701219E-04  2.891626E-04  3.084546E-04  3.280036E-04  3.478180E-04  3.679078E-04  3.882847E-04  4.089617E-04  4.298972E-04


SCALARS Total_Cl-            float 1
LOOKUP_TABLE default
 2.513233E-02  2.513233E-02  2.513233E-02  2.513233E-02  2.513233E-02  2.513233E-02  2.513233E-02  2.513233E-02  2.513233E-02  2.513233E-02
 2.513233E-02  2.513233E-02  2.513233E-02  2.513233E-02  2.513233E-02  2.513233E-02  2.513233E-02  2.513233E-02  2.513233E-02  2.513233E-02


SCALARS Total_CO2(aq)        float 1
LOOKUP_TABLE default
 1.357909E-02  1.359329E-02  1.360851E-02  1.362449E-02  1.364105E-02  1.365806E-02  1.367546E-02  1.369318E-02  1.371120E-02  1.372949E-02
 1.374803E-02  1.376682E-02  1.378586E-02  1.380515E-02  1.382470E-02  1.384452E-02  1.386461E-02  1.388498E-02  1.390566E-02  1.392660E-02


SCALARS Total_Na+            float 1
LOOKUP_TABLE default
 3.122900E-02  3.122900E-02  3.122900E-02  3.122900E-02  3.122900E-02  3.122900E-02  3.122900E-02  3.122900E-02  3.122900E-02  3.122900E-02
 3.122900E-02  3.122900E-02  3.122900E-02  3.122900E-02  3.122900E-02  3.122900E-02  3.122900E-02  3.122900E-02  3.122900E-02  3.122900E-02


SCALARS Total_K+             float 1
LOOKUP_TABLE default
 2.655416E-03  2.655416E-03  2.655416E-03  2.655416E-03  2.655416E-03  2.655416E-03  2.655416E-03  2.655416E-03  2.655416E-03  2.655416E-03
 2.655416E-03  2.655416E-03  2.655416E-03  2.655416E-03  2.655416E-03  2.655416E-03  2.655416E-03  2.655416E-03  2.655416E-03  2.655416E-03


SCALARS Total_Mg++           float 1
LOOKUP_TABLE default
 8.216757E-07  8.216757E-07  8.216757E-07  8.216757E-07  8.216757E-07  8.216757E-07  8.216757E-07  8.216757E-07  8.216757E-07  8.216757E-07
 8.216757E-07  8.216757E-07  8.216757E-07  8.216756E-07  8.216756E-07  8.216756E-07  8.216756E-07  8.216756E-07  8.216756E-07  8.216756E-07


SCALARS Total_Fe++           float 1
LOOKUP_TABLE default
 1.251593E-06  1.251593E-06  1.251593E-06  1.251593E-06  1.251593E-06  1.251593E-06  1.251593E-06  1.251593E-06  1.251593E-06  1.251593E-06
 1.251593E-06  1.251593E-06  1.251593E-06  1.251593E-06  1.251593E-06  1.251592E-06  1.251592E-06  1.251592E-06  1.251592E-06  1.251592E-06


SCALARS Total_Cu++           float 1
LOOKUP_TABLE default
 9.952832E-11  9.952832E-11  9.952832E-11  9.952832E-11  9.952832E-11  9.952832E-11  9.952832E-11  9.952832E-11  9.952832E-11  9.952832E-11
 9.952832E-11  9.952832E-11  9.952832E-11  9.952832E-11  9.952832E-11  9.952832E-11  9.952832E-11  9.952832E-11  9.952832E-11  9.952832E-11


SCALARS Total_SO4--          float 1
LOOKUP_TABLE default
 4.376188E-03  4.376188E-03  4.376188E-03  4.376188E-03  4.376188E-03  4.376188E-03  4.376188E-03  4.376188E-03  4.376188E-03  4.376188E-03
 4.376188E-03  4.376188E-03  4.376188E-03  4.376188E-03  4.376188E-03  4.376188E-03  4.376188E-03  4.376188E-03  4.376188E-03  4.376188E-03


SCALARS Total_Tracer         float 1
LOOKUP_TABLE default
 9.952832E-11  9.952832E-11  9.952832E-11  9.952832E-11  9.952832E-11  9.952832E-11  9.952832E-11  9.952832E-11  9.952832E-11  9.952832E-11
 9.952832E-11  9.952832E-11  9.952832E-11  9.952832E-11  9.952832E-11  9.952832E-11  9.952832E-11  9.952832E-11  9.952832E-11  9.952832E-11


SCALARS Active_Gas_CO2(g)    float 1
LOOKUP_TABLE default
 0.000000E+00  0.000000E+00  0.000000E+00  0.000000E+00  0.000000E+00  0.000000E+00  0.000000E+00  0.000000E+00  0.000000E+00  0.000000E+00
 0.000000E+00  0.000000E+00  0.000000E+00  0.000000E+00  0.000000E+00  0.000000E+00  0.000000E+00  0.000000E+00  0.000000E+00  0.000000E+00


SCALARS HCO3-                float 1
LOOKUP_TABLE default
 1.827835E-04  2.079065E-04  2.353526E-04  2.645724E-04  2.951750E-04  3.268821E-04  3.594959E-04  3.928771E-04  4.269287E-04  4.615844E-04
 4.968006E-04  5.325504E-04  5.688196E-04  6.056038E-04  6.429060E-04  6.807352E-04  7.191049E-04  7.580325E-04  7.975383E-04  8.375387E-04


SCALARS H2SiO4--             float 1
LOOKUP_TABLE default
 4.320301E-13  5.596939E-13  7.183054E-13  9.092427E-13  1.133754E-12  1.392993E-12  1.688078E-12  2.020139E-12  2.390360E-12  2.800002E-12
 3.250430E-12  3.743127E-12  4.279708E-12  4.861936E-12  5.491733E-12  6.171187E-12  6.902570E-12  7.688345E-12  8.531173E-12  9.431476E-12


SCALARS H3SiO4-              float 1
LOOKUP_TABLE default
 1.451484E-06  1.651720E-06  1.870754E-06  2.104254E-06  2.349141E-06  2.603220E-06  2.864937E-06  3.133197E-06  3.407240E-06  3.686552E-06
 3.970797E-06  4.259776E-06  4.553393E-06  4.851627E-06  5.154524E-06  5.462176E-06  5.774715E-06  6.092307E-06  6.415142E-06  6.742566E-06


SCALARS Calcite_VF           float 1
LOOKUP_TABLE default
 9.900613E-03  1.011337E-02  1.028629E-02  1.043406E-02  1.056385E-02  1.068005E-02  1.078569E-02  1.088296E-02  1.097352E-02  1.105864E-02
 1.113934E-02  1.121643E-02  1.129058E-02  1.136233E-02  1.143215E-02  1.150042E-02  1.156748E-02  1.163362E-02  1.169908E-02  1.176394E-02


SCALARS SiO2(am)_VF          float 1
LOOKUP_TABLE default
 6.791399E-04  7.609922E-04  8.303757E-04  8.910795E-04  9.452103E-04  9.941170E-04  1.038734E-03  1.079740E-03  1.117651E-03  1.152862E-03
 1.185692E-03  1.216394E-03  1.245178E-03  1.272217E-03  1.297657E-03  1.321621E-03  1.344213E-03  1.365527E-03  1.385638E-03  1.404571E-03


SCALARS Calcite_Rate         float 1
LOOKUP_TABLE default
-1.695420E-05 -1.889618E-05 -2.025094E-05 -2.124792E-05 -2.201052E-05 -2.261588E-05 -2.311501E-05 -2.354263E-05 -2.392294E-05 -2.427311E-05
-2.460558E-05 -2.492949E-05 -2.525171E-05 -2.557745E-05 -2.591077E-05 -2.625487E-05 -2.661234E-05 -2.698526E-05 -2.737539E-05 -2.778323E-05


SCALARS SiO2(am)_Rate        float 1
LOOKUP_TABLE default
 6.585740E-06  6.813352E-06  7.092371E-06  7.394725E-06  7.706443E-06  8.020070E-06  8.331568E-06  8.638798E-06  8.940713E-06  9.236901E-06
 9.527325E-06  9.812164E-06  1.009172E-05  1.036637E-05  1.063650E-05  1.090254E-05  1.116490E-05  1.142396E-05  1.168013E-05  1.193308E-05


SCALARS Calcite_Area         float 1
LOOKUP_TABLE default
 3.143417E-01  3.890537E-01  4.611178E-01  5.319571E-01  6.020684E-01  6.717641E-01  7.413229E-01  8.110233E-01  8.811497E-01  9.519923E-01
 1.023846E+00  1.097011E+00  1.171791E+00  1.248497E+00  1.327451E+00  1.408982E+00  1.493435E+00  1.581173E+00  1.672575E+00  1.767797E+00


SCALARS SiO2(am)_Area        float 1
LOOKUP_TABLE default
 1.138814E+05  1.096341E+05  1.064867E+05  1.040089E+05  1.019827E+05  1.002812E+05  9.882385E+04  9.755641E+04  9.644067E+04  9.544876E+04
 9.455980E+04  9.375774E+04  9.303003E+04  9.236665E+04  9.175954E+04  9.120206E+04  9.068874E+04  9.021501E+04  8.977701E+04  8.937243E+04


SCALARS Material_ID          int 1
LOOKUP_TABLE default
  1
  1
  1
  1
  1
  1
  1
  1
  1
  1
  1
  1
  1
  1
  1
  1
  1
  1
  1
  1


