# vtk DataFile Version 2.0
PFLOTRAN output
ASCII
DATASET UNSTRUCTURED_GRID
POINTS           84 float
 0.000000E+00  0.000000E+00  0.000000E+00
 7.580000E-03  0.000000E+00  0.000000E+00
 1.516000E-02  0.000000E+00  0.000000E+00
 2.274000E-02  0.000000E+00  0.000000E+00
 3.032000E-02  0.000000E+00  0.000000E+00
 3.790000E-02  0.000000E+00  0.000000E+00
 4.548000E-02  0.000000E+00  0.000000E+00
 5.306000E-02  0.000000E+00  0.000000E+00
 6.064000E-02  0.000000E+00  0.000000E+00
 6.822000E-02  0.000000E+00  0.000000E+00
 7.580000E-02  0.000000E+00  0.000000E+00
 8.338000E-02  0.000000E+00  0.000000E+00
 9.096000E-02  0.000000E+00  0.000000E+00
 9.854000E-02  0.000000E+00  0.000000E+00
 1.061200E-01  0.000000E+00  0.000000E+00
 1.137000E-01  0.000000E+00  0.000000E+00
 1.212800E-01  0.000000E+00  0.000000E+00
 1.288600E-01  0.000000E+00  0.000000E+00
 1.364400E-01  0.000000E+00  0.000000E+00
 1.440200E-01  0.000000E+00  0.000000E+00
 1.516000E-01  0.000000E+00  0.000000E+00
 0.000000E+00  1.125000E-02  0.000000E+00
 7.580000E-03  1.125000E-02  0.000000E+00
 1.516000E-02  1.125000E-02  0.000000E+00
 2.274000E-02  1.125000E-02  0.000000E+00
 3.032000E-02  1.125000E-02  0.000000E+00
 3.790000E-02  1.125000E-02  0.000000E+00
 4.548000E-02  1.125000E-02  0.000000E+00
 5.306000E-02  1.125000E-02  0.000000E+00
 6.064000E-02  1.125000E-02  0.000000E+00
 6.822000E-02  1.125000E-02  0.000000E+00
 7.580000E-02  1.125000E-02  0.000000E+00
 8.338000E-02  1.125000E-02  0.000000E+00
 9.096000E-02  1.125000E-02  0.000000E+00
 9.854000E-02  1.125000E-02  0.000000E+00
 1.061200E-01  1.125000E-02  0.000000E+00
 1.137000E-01  1.125000E-02  0.000000E+00
 1.212800E-01  1.125000E-02  0.000000E+00
 1.288600E-01  1.125000E-02  0.000000E+00
 1.364400E-01  1.125000E-02  0.000000E+00
 1.440200E-01  1.125000E-02  0.000000E+00
 1.516000E-01  1.125000E-02  0.000000E+00
 0.000000E+00  0.000000E+00  1.125000E-02
 7.580000E-03  0.000000E+00  1.125000E-02
 1.516000E-02  0.000000E+00  1.125000E-02
 2.274000E-02  0.000000E+00  1.125000E-02
 3.032000E-02  0.000000E+00  1.125000E-02
 3.790000E-02  0.000000E+00  1.125000E-02
 4.548000E-02  0.000000E+00  1.125000E-02
 5.306000E-02  0.000000E+00  1.125000E-02
 6.064000E-02  0.000000E+00  1.125000E-02
 6.822000E-02  0.000000E+00  1.125000E-02
 7.580000E-02  0.000000E+00  1.125000E-02
 8.338000E-02  0.000000E+00  1.125000E-02
 9.096000E-02  0.000000E+00  1.125000E-02
 9.854000E-02  0.000000E+00  1.125000E-02
 1.061200E-01  0.000000E+00  1.125000E-02
 1.137000E-01  0.000000E+00  1.125000E-02
 1.212800E-01  0.000000E+00  1.125000E-02
 1.288600E-01  0.000000E+00  1.125000E-02
 1.364400E-01  0.000000E+00  1.125000E-02
 1.440200E-01  0.000000E+00  1.125000E-02
 1.516000E-01  0.000000E+00  1.125000E-02
 0.000000E+00  1.125000E-02  1.125000E-02
 7.580000E-03  1.125000E-02  1.125000E-02
 1.516000E-02  1.125000E-02  1.125000E-02
 2.274000E-02  1.125000E-02  1.125000E-02
 3.032000E-02  1.125000E-02  1.125000E-02
 3.790000E-02  1.125000E-02  1.125000E-02
 4.548000E-02  1.125000E-02  1.125000E-02
 5.306000E-02  1.125000E-02  1.125000E-02
 6.064000E-02  1.125000E-02  1.125000E-02
 6.822000E-02  1.125000E-02  1.125000E-02
 7.580000E-02  1.125000E-02  1.125000E-02
 8.338000E-02  1.125000E-02  1.125000E-02
 9.096000E-02  1.125000E-02  1.125000E-02
 9.854000E-02  1.125000E-02  1.125000E-02
 1.061200E-01  1.125000E-02  1.125000E-02
 1.137000E-01  1.125000E-02  1.125000E-02
 1.212800E-01  1.125000E-02  1.125000E-02
 1.288600E-01  1.125000E-02  1.125000E-02
 1.364400E-01  1.125000E-02  1.125000E-02
 1.440200E-01  1.125000E-02  1.125000E-02
 1.516000E-01  1.125000E-02  1.125000E-02
CELLS           20          180
8        0        1       22       21       42       43       64       63
8        1        2       23       22       43       44       65       64
8        2        3       24       23       44       45       66       65
8        3        4       25       24       45       46       67       66
8        4        5       26       25       46       47       68       67
8        5        6       27       26       47       48       69       68
8        6        7       28       27       48       49       70       69
8        7        8       29       28       49       50       71       70
8        8        9       30       29       50       51       72       71
8        9       10       31       30       51       52       73       72
8       10       11       32       31       52       53       74       73
8       11       12       33       32       53       54       75       74
8       12       13       34       33       54       55       76       75
8       13       14       35       34       55       56       77       76
8       14       15       36       35       56       57       78       77
8       15       16       37       36       57       58       79       78
8       16       17       38       37       58       59       80       79
8       17       18       39       38       59       60       81       80
8       18       19       40       39       60       61       82       81
8       19       20       41       40       61       62       83       82

CELL_TYPES           20
12
12
12
12
12
12
12
12
12
12
12
12
12
12
12
12
12
12
12
12

CELL_DATA       20
SCALARS Porosity             float 1
LOOKUP_TABLE default
 9.878658E-01  9.874219E-01  9.871181E-01  9.868862E-01  9.866969E-01  9.865349E-01  9.863913E-01  9.862608E-01  9.861397E-01  9.860257E-01
 9.859172E-01  9.858130E-01  9.857124E-01  9.856148E-01  9.855202E-01  9.854282E-01  9.853391E-01  9.852528E-01  9.851697E-01  9.850901E-01


SCALARS Permeability_X       float 1
LOOKUP_TABLE default
 1.000000E-12  1.000000E-12  1.000000E-12  1.000000E-12  1.000000E-12  1.000000E-12  1.000000E-12  1.000000E-12  1.000000E-12  1.000000E-12
 1.000000E-12  1.000000E-12  1.000000E-12  1.000000E-12  1.000000E-12  1.000000E-12  1.000000E-12  1.000000E-12  1.000000E-12  1.000000E-12


SCALARS Liquid_Pressure      float 1
LOOKUP_TABLE default
 7.500296E+06  7.500281E+06  7.500266E+06  7.500250E+06  7.500235E+06  7.500220E+06  7.500205E+06  7.500190E+06  7.500175E+06  7.500159E+06
 7.500144E+06  7.500129E+06  7.500114E+06  7.500099E+06  7.500083E+06  7.500068E+06  7.500053E+06  7.500038E+06  7.500023E+06  7.500008E+06


SCALARS Temperature          float 1
LOOKUP_TABLE default
 1.500000E+02  1.499999E+02  1.499999E+02  1.499998E+02  1.499998E+02  1.499998E+02  1.499997E+02  1.499997E+02  1.499997E+02  1.499997E+02
 1.499996E+02  1.499996E+02  1.499996E+02  1.499996E+02  1.499996E+02  1.499996E+02  1.499997E+02  1.499997E+02  1.499998E+02  1.499999E+02


SCALARS pH                   float 1
LOOKUP_TABLE default
 4.929910E+00  5.082324E+00  5.197652E+00  5.289267E+00  5.364929E+00  5.429286E+00  5.485274E+00  5.534840E+00  5.579323E+00  5.619678E+00
 5.656598E+00  5.690599E+00  5.722066E+00  5.751292E+00  5.778498E+00  5.803851E+00  5.827479E+00  5.849479E+00  5.869924E+00  5.888830E+00


SCALARS Total_H+             float 1
LOOKUP_TABLE default
-4.343822E-04 -5.498065E-04 -6.656875E-04 -7.807280E-04 -8.946244E-04 -1.007396E-03 -1.119160E-03 -1.230042E-03 -1.340144E-03 -1.449519E-03
-1.558169E-03 -1.666034E-03 -1.772992E-03 -1.878855E-03 -1.983370E-03 -2.086222E-03 -2.187039E-03 -2.285401E-03 -2.380854E-03 -2.472711E-03


SCALARS Total_SiO2(aq)       float 1
LOOKUP_TABLE default
 1.405178E-02  1.404295E-02  1.403305E-02  1.402219E-02  1.401046E-02  1.399795E-02  1.398471E-02  1.397079E-02  1.395622E-02  1.394106E-02
 1.392532E-02  1.390904E-02  1.389225E-02  1.387495E-02  1.385719E-02  1.383898E-02  1.382035E-02  1.380132E-02  1.378192E-02  1.376223E-02


SCALARS Total_Al+++          float 1
LOOKUP_TABLE default
 6.015348E-05  6.015348E-05  6.015348E-05  6.015348E-05  6.015348E-05  6.015348E-05  6.015348E-05  6.015349E-05  6.015349E-05  6.015349E-05
 6.015349E-05  6.015349E-05  6.015349E-05  6.015350E-05  6.015350E-05  6.015350E-05  6.015350E-05  6.015350E-05  6.015350E-05  6.015350E-05


SCALARS Total_Ca++           float 1
LOOKUP_TABLE default
 1.246582E-04  1.823703E-04  2.403108E-04  2.978311E-04  3.547793E-04  4.111652E-04  4.670470E-04  5.224883E-04  5.775390E-04  6.322266E-04
 6.865515E-04  7.404841E-04  7.939632E-04  8.468947E-04  8.991523E-04  9.505782E-04  1.000986E-03  1.050167E-03  1.097894E-03  1.143822E-03


SCALARS Total_Cl-            float 1
LOOKUP_TABLE default
 2.513233E-02  2.513233E-02  2.513233E-02  2.513233E-02  2.513233E-02  2.513233E-02  2.513233E-02  2.513233E-02  2.513233E-02  2.513233E-02
 2.513233E-02  2.513233E-02  2.513233E-02  2.513233E-02  2.513233E-02  2.513233E-02  2.513233E-02  2.513233E-02  2.513233E-02  2.513233E-02


SCALARS Total_CO2(aq)        float 1
LOOKUP_TABLE default
 1.362136E-02  1.367907E-02  1.373701E-02  1.379453E-02  1.385148E-02  1.390787E-02  1.396375E-02  1.401919E-02  1.407424E-02  1.412893E-02
 1.418325E-02  1.423718E-02  1.429066E-02  1.434359E-02  1.439585E-02  1.444728E-02  1.449769E-02  1.454687E-02  1.459459E-02  1.464052E-02


SCALARS Total_Na+            float 1
LOOKUP_TABLE default
 3.122900E-02  3.122900E-02  3.122900E-02  3.122900E-02  3.122900E-02  3.122900E-02  3.122900E-02  3.122900E-02  3.122900E-02  3.122900E-02
 3.122900E-02  3.122900E-02  3.122900E-02  3.122900E-02  3.122900E-02  3.122900E-02  3.122900E-02  3.122900E-02  3.122900E-02  3.122900E-02


SCALARS Total_K+             float 1
LOOKUP_TABLE default
 2.655416E-03  2.655416E-03  2.655416E-03  2.655416E-03  2.655416E-03  2.655416E-03  2.655416E-03  2.655416E-03  2.655416E-03  2.655416E-03
 2.655416E-03  2.655416E-03  2.655416E-03  2.655416E-03  2.655416E-03  2.655416E-03  2.655415E-03  2.655415E-03  2.655415E-03  2.655415E-03


SCALARS Total_Mg++           float 1
LOOKUP_TABLE default
 8.216757E-07  8.216757E-07  8.216757E-07  8.216757E-07  8.216757E-07  8.216757E-07  8.216757E-07  8.216757E-07  8.216757E-07  8.216757E-07
 8.216757E-07  8.216757E-07  8.216757E-07  8.216756E-07  8.216756E-07  8.216756E-07  8.216756E-07  8.216756E-07  8.216756E-07  8.216756E-07


SCALARS Total_Fe++           float 1
LOOKUP_TABLE default
 1.251593E-06  1.251593E-06  1.251593E-06  1.251593E-06  1.251593E-06  1.251593E-06  1.251593E-06  1.251593E-06  1.251593E-06  1.251593E-06
 1.251593E-06  1.251593E-06  1.251593E-06  1.251592E-06  1.251592E-06  1.251592E-06  1.251592E-06  1.251592E-06  1.251592E-06  1.251592E-06


SCALARS Total_Cu++           float 1
LOOKUP_TABLE default
 9.952832E-11  9.952832E-11  9.952832E-11  9.952832E-11  9.952832E-11  9.952832E-11  9.952832E-11  9.952832E-11  9.952832E-11  9.952832E-11
 9.952832E-11  9.952832E-11  9.952832E-11  9.952832E-11  9.952832E-11  9.952832E-11  9.952832E-11  9.952832E-11  9.952831E-11  9.952831E-11


SCALARS Total_SO4--          float 1
LOOKUP_TABLE default
 4.376188E-03  4.376188E-03  4.376188E-03  4.376188E-03  4.376188E-03  4.376188E-03  4.376188E-03  4.376188E-03  4.376188E-03  4.376188E-03
 4.376188E-03  4.376188E-03  4.376188E-03  4.376188E-03  4.376188E-03  4.376188E-03  4.376188E-03  4.376188E-03  4.376188E-03  4.376188E-03


SCALARS Total_Tracer         float 1
LOOKUP_TABLE default
 9.952832E-11  9.952832E-11  9.952832E-11  9.952832E-11  9.952832E-11  9.952832E-11  9.952832E-11  9.952832E-11  9.952832E-11  9.952832E-11
 9.952832E-11  9.952832E-11  9.952832E-11  9.952832E-11  9.952832E-11  9.952832E-11  9.952832E-11  9.952832E-11  9.952831E-11  9.952831E-11


SCALARS Active_Gas_CO2(g)    float 1
LOOKUP_TABLE default
 0.000000E+00  0.000000E+00  0.000000E+00  0.000000E+00  0.000000E+00  0.000000E+00  0.000000E+00  0.000000E+00  0.000000E+00  0.000000E+00
 0.000000E+00  0.000000E+00  0.000000E+00  0.000000E+00  0.000000E+00  0.000000E+00  0.000000E+00  0.000000E+00  0.000000E+00  0.000000E+00


SCALARS HCO3-                float 1
LOOKUP_TABLE default
 2.588157E-04  3.662799E-04  4.758557E-04  5.853288E-04  6.940067E-04  8.017170E-04  9.084691E-04  1.014324E-03  1.119340E-03  1.223543E-03
 1.326916E-03  1.429390E-03  1.530841E-03  1.631085E-03  1.729880E-03  1.826929E-03  1.921885E-03  2.014360E-03  2.103938E-03  2.189987E-03


SCALARS H2SiO4--             float 1
LOOKUP_TABLE default
 8.705806E-13  1.756094E-12  2.985999E-12  4.551754E-12  6.446665E-12  8.666768E-12  1.121035E-11  1.407712E-11  1.726730E-11  2.078063E-11
 2.461535E-11  2.876713E-11  3.322788E-11  3.798469E-11  4.301868E-11  4.830409E-11  5.380758E-11  5.948796E-11  6.529632E-11  7.116282E-11


SCALARS H3SiO4-              float 1
LOOKUP_TABLE default
 2.060022E-06  2.924399E-06  3.811392E-06  4.703146E-06  5.593879E-06  6.481986E-06  7.367354E-06  8.250314E-06  9.131186E-06  1.001005E-05
 1.088660E-05  1.176011E-05  1.262932E-05  1.349245E-05  1.434716E-05  1.519055E-05  1.601923E-05  1.682935E-05  1.761675E-05  1.837527E-05


SCALARS Calcite_VF           float 1
LOOKUP_TABLE default
 1.176903E-02  1.215819E-02  1.242133E-02  1.262060E-02  1.278274E-02  1.292155E-02  1.304496E-02  1.315786E-02  1.326341E-02  1.336373E-02
 1.346023E-02  1.355388E-02  1.364532E-02  1.373490E-02  1.382283E-02  1.390913E-02  1.399371E-02  1.407638E-02  1.415686E-02  1.423465E-02


SCALARS SiO2(am)_VF          float 1
LOOKUP_TABLE default
 3.390508E-04  3.930071E-04  4.340239E-04  4.672383E-04  4.950965E-04  5.189704E-04  5.397115E-04  5.578872E-04  5.738962E-04  5.880305E-04
 6.005120E-04  6.115139E-04  6.211761E-04  6.296139E-04  6.369250E-04  6.431944E-04  6.484976E-04  6.529036E-04  6.564762E-04  6.592714E-04


SCALARS Calcite_Rate         float 1
LOOKUP_TABLE default
-7.331264E-05 -7.669458E-05 -7.692431E-05 -7.629439E-05 -7.546660E-05 -7.465568E-05 -7.392611E-05 -7.328458E-05 -7.271308E-05 -7.218195E-05
-7.165533E-05 -7.109373E-05 -7.045537E-05 -6.969740E-05 -6.877711E-05 -6.765353E-05 -6.628946E-05 -6.465380E-05 -6.272417E-05 -6.049565E-05


SCALARS SiO2(am)_Rate        float 1
LOOKUP_TABLE default
 1.013702E-05  1.174234E-05  1.316679E-05  1.443279E-05  1.557272E-05  1.661266E-05  1.757204E-05  1.846523E-05  1.930288E-05  2.009287E-05
 2.084101E-05  2.155149E-05  2.222722E-05  2.287007E-05  2.348104E-05  2.406045E-05  2.460802E-05  2.512307E-05  2.560462E-05  2.605049E-05


SCALARS Calcite_Area         float 1
LOOKUP_TABLE default
 1.803023E+00  2.497009E+00  3.091789E+00  3.623061E+00  4.114071E+00  4.581000E+00  5.035585E+00  5.486633E+00  5.940931E+00  6.403800E+00
 6.879429E+00  7.371064E+00  7.881102E+00  8.411117E+00  8.961837E+00  9.533102E+00  1.012380E+01  1.073184E+01  1.135410E+01  1.198507E+01


SCALARS SiO2(am)_Area        float 1
LOOKUP_TABLE default
 1.438598E+05  1.369494E+05  1.324982E+05  1.292886E+05  1.268243E+05  1.248562E+05  1.232430E+05  1.218967E+05  1.207594E+05  1.197908E+05
 1.189617E+05  1.182507E+05  1.176411E+05  1.171199E+05  1.166767E+05  1.163030E+05  1.159917E+05  1.157367E+05  1.155328E+05  1.153755E+05


SCALARS Material_ID          int 1
LOOKUP_TABLE default
  1
  1
  1
  1
  1
  1
  1
  1
  1
  1
  1
  1
  1
  1
  1
  1
  1
  1
  1
  1


