# vtk DataFile Version 2.0
PFLOTRAN output
ASCII
DATASET UNSTRUCTURED_GRID
POINTS           84 float
 0.000000E+00  0.000000E+00  0.000000E+00
 7.580000E-03  0.000000E+00  0.000000E+00
 1.516000E-02  0.000000E+00  0.000000E+00
 2.274000E-02  0.000000E+00  0.000000E+00
 3.032000E-02  0.000000E+00  0.000000E+00
 3.790000E-02  0.000000E+00  0.000000E+00
 4.548000E-02  0.000000E+00  0.000000E+00
 5.306000E-02  0.000000E+00  0.000000E+00
 6.064000E-02  0.000000E+00  0.000000E+00
 6.822000E-02  0.000000E+00  0.000000E+00
 7.580000E-02  0.000000E+00  0.000000E+00
 8.338000E-02  0.000000E+00  0.000000E+00
 9.096000E-02  0.000000E+00  0.000000E+00
 9.854000E-02  0.000000E+00  0.000000E+00
 1.061200E-01  0.000000E+00  0.000000E+00
 1.137000E-01  0.000000E+00  0.000000E+00
 1.212800E-01  0.000000E+00  0.000000E+00
 1.288600E-01  0.000000E+00  0.000000E+00
 1.364400E-01  0.000000E+00  0.000000E+00
 1.440200E-01  0.000000E+00  0.000000E+00
 1.516000E-01  0.000000E+00  0.000000E+00
 0.000000E+00  1.125000E-02  0.000000E+00
 7.580000E-03  1.125000E-02  0.000000E+00
 1.516000E-02  1.125000E-02  0.000000E+00
 2.274000E-02  1.125000E-02  0.000000E+00
 3.032000E-02  1.125000E-02  0.000000E+00
 3.790000E-02  1.125000E-02  0.000000E+00
 4.548000E-02  1.125000E-02  0.000000E+00
 5.306000E-02  1.125000E-02  0.000000E+00
 6.064000E-02  1.125000E-02  0.000000E+00
 6.822000E-02  1.125000E-02  0.000000E+00
 7.580000E-02  1.125000E-02  0.000000E+00
 8.338000E-02  1.125000E-02  0.000000E+00
 9.096000E-02  1.125000E-02  0.000000E+00
 9.854000E-02  1.125000E-02  0.000000E+00
 1.061200E-01  1.125000E-02  0.000000E+00
 1.137000E-01  1.125000E-02  0.000000E+00
 1.212800E-01  1.125000E-02  0.000000E+00
 1.288600E-01  1.125000E-02  0.000000E+00
 1.364400E-01  1.125000E-02  0.000000E+00
 1.440200E-01  1.125000E-02  0.000000E+00
 1.516000E-01  1.125000E-02  0.000000E+00
 0.000000E+00  0.000000E+00  1.125000E-02
 7.580000E-03  0.000000E+00  1.125000E-02
 1.516000E-02  0.000000E+00  1.125000E-02
 2.274000E-02  0.000000E+00  1.125000E-02
 3.032000E-02  0.000000E+00  1.125000E-02
 3.790000E-02  0.000000E+00  1.125000E-02
 4.548000E-02  0.000000E+00  1.125000E-02
 5.306000E-02  0.000000E+00  1.125000E-02
 6.064000E-02  0.000000E+00  1.125000E-02
 6.822000E-02  0.000000E+00  1.125000E-02
 7.580000E-02  0.000000E+00  1.125000E-02
 8.338000E-02  0.000000E+00  1.125000E-02
 9.096000E-02  0.000000E+00  1.125000E-02
 9.854000E-02  0.000000E+00  1.125000E-02
 1.061200E-01  0.000000E+00  1.125000E-02
 1.137000E-01  0.000000E+00  1.125000E-02
 1.212800E-01  0.000000E+00  1.125000E-02
 1.288600E-01  0.000000E+00  1.125000E-02
 1.364400E-01  0.000000E+00  1.125000E-02
 1.440200E-01  0.000000E+00  1.125000E-02
 1.516000E-01  0.000000E+00  1.125000E-02
 0.000000E+00  1.125000E-02  1.125000E-02
 7.580000E-03  1.125000E-02  1.125000E-02
 1.516000E-02  1.125000E-02  1.125000E-02
 2.274000E-02  1.125000E-02  1.125000E-02
 3.032000E-02  1.125000E-02  1.125000E-02
 3.790000E-02  1.125000E-02  1.125000E-02
 4.548000E-02  1.125000E-02  1.125000E-02
 5.306000E-02  1.125000E-02  1.125000E-02
 6.064000E-02  1.125000E-02  1.125000E-02
 6.822000E-02  1.125000E-02  1.125000E-02
 7.580000E-02  1.125000E-02  1.125000E-02
 8.338000E-02  1.125000E-02  1.125000E-02
 9.096000E-02  1.125000E-02  1.125000E-02
 9.854000E-02  1.125000E-02  1.125000E-02
 1.061200E-01  1.125000E-02  1.125000E-02
 1.137000E-01  1.125000E-02  1.125000E-02
 1.212800E-01  1.125000E-02  1.125000E-02
 1.288600E-01  1.125000E-02  1.125000E-02
 1.364400E-01  1.125000E-02  1.125000E-02
 1.440200E-01  1.125000E-02  1.125000E-02
 1.516000E-01  1.125000E-02  1.125000E-02
CELLS           20          180
8        0        1       22       21       42       43       64       63
8        1        2       23       22       43       44       65       64
8        2        3       24       23       44       45       66       65
8        3        4       25       24       45       46       67       66
8        4        5       26       25       46       47       68       67
8        5        6       27       26       47       48       69       68
8        6        7       28       27       48       49       70       69
8        7        8       29       28       49       50       71       70
8        8        9       30       29       50       51       72       71
8        9       10       31       30       51       52       73       72
8       10       11       32       31       52       53       74       73
8       11       12       33       32       53       54       75       74
8       12       13       34       33       54       55       76       75
8       13       14       35       34       55       56       77       76
8       14       15       36       35       56       57       78       77
8       15       16       37       36       57       58       79       78
8       16       17       38       37       58       59       80       79
8       17       18       39       38       59       60       81       80
8       18       19       40       39       60       61       82       81
8       19       20       41       40       61       62       83       82

CELL_TYPES           20
12
12
12
12
12
12
12
12
12
12
12
12
12
12
12
12
12
12
12
12

CELL_DATA       20
SCALARS Porosity             float 1
LOOKUP_TABLE default
 9.879670E-01  9.875267E-01  9.872218E-01  9.869876E-01  9.867958E-01  9.866313E-01  9.864855E-01  9.863530E-01  9.862301E-01  9.861144E-01
 9.860042E-01  9.858984E-01  9.857960E-01  9.856967E-01  9.856000E-01  9.855058E-01  9.854140E-01  9.853247E-01  9.852382E-01  9.851548E-01


SCALARS Permeability_X       float 1
LOOKUP_TABLE default
 1.000000E-12  1.000000E-12  1.000000E-12  1.000000E-12  1.000000E-12  1.000000E-12  1.000000E-12  1.000000E-12  1.000000E-12  1.000000E-12
 1.000000E-12  1.000000E-12  1.000000E-12  1.000000E-12  1.000000E-12  1.000000E-12  1.000000E-12  1.000000E-12  1.000000E-12  1.000000E-12


SCALARS Liquid_Pressure      float 1
LOOKUP_TABLE default
 7.500296E+06  7.500281E+06  7.500266E+06  7.500250E+06  7.500235E+06  7.500220E+06  7.500205E+06  7.500190E+06  7.500175E+06  7.500159E+06
 7.500144E+06  7.500129E+06  7.500114E+06  7.500099E+06  7.500083E+06  7.500068E+06  7.500053E+06  7.500038E+06  7.500023E+06  7.500008E+06


SCALARS Temperature          float 1
LOOKUP_TABLE default
 1.500000E+02  1.499999E+02  1.499999E+02  1.499999E+02  1.499998E+02  1.499998E+02  1.499998E+02  1.499997E+02  1.499997E+02  1.499997E+02
 1.499996E+02  1.499996E+02  1.499996E+02  1.499996E+02  1.499996E+02  1.499997E+02  1.499997E+02  1.499997E+02  1.499998E+02  1.499999E+02


SCALARS pH                   float 1
LOOKUP_TABLE default
 4.917560E+00  5.064768E+00  5.177770E+00  5.268271E+00  5.343393E+00  5.407512E+00  5.463438E+00  5.513054E+00  5.557669E+00  5.598221E+00
 5.635398E+00  5.669711E+00  5.701548E+00  5.731203E+00  5.758901E+00  5.784813E+00  5.809067E+00  5.831762E+00  5.852970E+00  5.872699E+00


SCALARS Total_H+             float 1
LOOKUP_TABLE default
-4.265308E-04 -5.345473E-04 -6.435995E-04 -7.523051E-04 -8.602741E-04 -9.674634E-04 -1.073950E-03 -1.179841E-03 -1.285231E-03 -1.390188E-03
-1.494735E-03 -1.598846E-03 -1.702442E-03 -1.805388E-03 -1.907486E-03 -2.008479E-03 -2.108051E-03 -2.205833E-03 -2.301408E-03 -2.394102E-03


SCALARS Total_SiO2(aq)       float 1
LOOKUP_TABLE default
 1.405199E-02  1.404347E-02  1.403393E-02  1.402350E-02  1.401224E-02  1.400023E-02  1.398752E-02  1.397416E-02  1.396018E-02  1.394562E-02
 1.393051E-02  1.391487E-02  1.389873E-02  1.388210E-02  1.386501E-02  1.384748E-02  1.382953E-02  1.381117E-02  1.379244E-02  1.377341E-02


SCALARS Total_Al+++          float 1
LOOKUP_TABLE default
 6.015348E-05  6.015348E-05  6.015348E-05  6.015348E-05  6.015348E-05  6.015348E-05  6.015348E-05  6.015349E-05  6.015349E-05  6.015349E-05
 6.015349E-05  6.015349E-05  6.015349E-05  6.015349E-05  6.015350E-05  6.015350E-05  6.015350E-05  6.015350E-05  6.015350E-05  6.015350E-05


SCALARS Total_Ca++           float 1
LOOKUP_TABLE default
 1.207325E-04  1.747407E-04  2.292668E-04  2.836196E-04  3.376041E-04  3.911988E-04  4.444420E-04  4.973873E-04  5.500828E-04  6.025612E-04
 6.548344E-04  7.068900E-04  7.586883E-04  8.101611E-04  8.612100E-04  9.117064E-04  9.614926E-04  1.010383E-03  1.058171E-03  1.104518E-03


SCALARS Total_Cl-            float 1
LOOKUP_TABLE default
 2.513233E-02  2.513233E-02  2.513233E-02  2.513233E-02  2.513233E-02  2.513233E-02  2.513233E-02  2.513233E-02  2.513233E-02  2.513233E-02
 2.513233E-02  2.513233E-02  2.513233E-02  2.513233E-02  2.513233E-02  2.513233E-02  2.513233E-02  2.513233E-02  2.513233E-02  2.513233E-02


SCALARS Total_CO2(aq)        float 1
LOOKUP_TABLE default
 1.361743E-02  1.367144E-02  1.372597E-02  1.378032E-02  1.383430E-02  1.388790E-02  1.394114E-02  1.399409E-02  1.404678E-02  1.409926E-02
 1.415153E-02  1.420359E-02  1.425539E-02  1.430686E-02  1.435791E-02  1.440841E-02  1.445819E-02  1.450708E-02  1.455487E-02  1.460122E-02


SCALARS Total_Na+            float 1
LOOKUP_TABLE default
 3.122900E-02  3.122900E-02  3.122900E-02  3.122900E-02  3.122900E-02  3.122900E-02  3.122900E-02  3.122900E-02  3.122900E-02  3.122900E-02
 3.122900E-02  3.122900E-02  3.122900E-02  3.122900E-02  3.122900E-02  3.122900E-02  3.122900E-02  3.122900E-02  3.122900E-02  3.122900E-02


SCALARS Total_K+             float 1
LOOKUP_TABLE default
 2.655416E-03  2.655416E-03  2.655416E-03  2.655416E-03  2.655416E-03  2.655416E-03  2.655416E-03  2.655416E-03  2.655416E-03  2.655416E-03
 2.655416E-03  2.655416E-03  2.655416E-03  2.655416E-03  2.655416E-03  2.655416E-03  2.655415E-03  2.655415E-03  2.655415E-03  2.655415E-03


SCALARS Total_Mg++           float 1
LOOKUP_TABLE default
 8.216757E-07  8.216757E-07  8.216757E-07  8.216757E-07  8.216757E-07  8.216757E-07  8.216757E-07  8.216757E-07  8.216757E-07  8.216757E-07
 8.216757E-07  8.216757E-07  8.216757E-07  8.216756E-07  8.216756E-07  8.216756E-07  8.216756E-07  8.216756E-07  8.216756E-07  8.216756E-07


SCALARS Total_Fe++           float 1
LOOKUP_TABLE default
 1.251593E-06  1.251593E-06  1.251593E-06  1.251593E-06  1.251593E-06  1.251593E-06  1.251593E-06  1.251593E-06  1.251593E-06  1.251593E-06
 1.251593E-06  1.251593E-06  1.251593E-06  1.251592E-06  1.251592E-06  1.251592E-06  1.251592E-06  1.251592E-06  1.251592E-06  1.251592E-06


SCALARS Total_Cu++           float 1
LOOKUP_TABLE default
 9.952832E-11  9.952832E-11  9.952832E-11  9.952832E-11  9.952832E-11  9.952832E-11  9.952832E-11  9.952832E-11  9.952832E-11  9.952832E-11
 9.952832E-11  9.952832E-11  9.952832E-11  9.952832E-11  9.952832E-11  9.952832E-11  9.952832E-11  9.952832E-11  9.952831E-11  9.952831E-11


SCALARS Total_SO4--          float 1
LOOKUP_TABLE default
 4.376188E-03  4.376188E-03  4.376188E-03  4.376188E-03  4.376188E-03  4.376188E-03  4.376188E-03  4.376188E-03  4.376188E-03  4.376188E-03
 4.376188E-03  4.376188E-03  4.376188E-03  4.376188E-03  4.376188E-03  4.376188E-03  4.376188E-03  4.376188E-03  4.376188E-03  4.376188E-03


SCALARS Total_Tracer         float 1
LOOKUP_TABLE default
 9.952832E-11  9.952832E-11  9.952832E-11  9.952832E-11  9.952832E-11  9.952832E-11  9.952832E-11  9.952832E-11  9.952832E-11  9.952832E-11
 9.952832E-11  9.952832E-11  9.952832E-11  9.952832E-11  9.952832E-11  9.952832E-11  9.952832E-11  9.952832E-11  9.952831E-11  9.952831E-11


SCALARS Active_Gas_CO2(g)    float 1
LOOKUP_TABLE default
 0.000000E+00  0.000000E+00  0.000000E+00  0.000000E+00  0.000000E+00  0.000000E+00  0.000000E+00  0.000000E+00  0.000000E+00  0.000000E+00
 0.000000E+00  0.000000E+00  0.000000E+00  0.000000E+00  0.000000E+00  0.000000E+00  0.000000E+00  0.000000E+00  0.000000E+00  0.000000E+00


SCALARS HCO3-                float 1
LOOKUP_TABLE default
 2.516199E-04  3.519429E-04  4.548978E-04  5.582439E-04  6.612134E-04  7.635728E-04  8.652915E-04  9.664098E-04  1.066980E-03  1.167036E-03
 1.266583E-03  1.365582E-03  1.463946E-03  1.561540E-03  1.658170E-03  1.753593E-03  1.847509E-03  1.939573E-03  2.029400E-03  2.116365E-03


SCALARS H2SiO4--             float 1
LOOKUP_TABLE default
 8.224393E-13  1.619669E-12  2.724676E-12  4.132169E-12  5.837916E-12  7.839873E-12  1.013801E-11  1.273376E-11  1.562932E-11  1.882693E-11
 2.232800E-11  2.613229E-11  3.023686E-11  3.463513E-11  3.931576E-11  4.426170E-11  4.944922E-11  5.484730E-11  6.041722E-11  6.609885E-11


SCALARS H3SiO4-              float 1
LOOKUP_TABLE default
 2.002290E-06  2.808621E-06  3.641026E-06  4.481531E-06  5.323828E-06  6.165882E-06  7.007313E-06  7.848332E-06  8.689265E-06  9.530312E-06
 1.037141E-05  1.121213E-05  1.205164E-05  1.288864E-05  1.372130E-05  1.454730E-05  1.536379E-05  1.616742E-05  1.695441E-05  1.771884E-05


SCALARS Calcite_VF           float 1
LOOKUP_TABLE default
 1.165736E-02  1.204079E-02  1.230315E-02  1.250309E-02  1.266627E-02  1.280614E-02  1.293050E-02  1.304422E-02  1.315049E-02  1.325145E-02
 1.334858E-02  1.344289E-02  1.353507E-02  1.362557E-02  1.371463E-02  1.380235E-02  1.388869E-02  1.397352E-02  1.405662E-02  1.413749E-02


SCALARS SiO2(am)_VF          float 1
LOOKUP_TABLE default
 3.515260E-04  4.073977E-04  4.501293E-04  4.848754E-04  5.141174E-04  5.392568E-04  5.611678E-04  5.804346E-04  5.974685E-04  6.125712E-04
 6.259715E-04  6.378480E-04  6.483440E-04  6.575773E-04  6.656470E-04  6.726386E-04  6.786276E-04  6.836819E-04  6.878642E-04  6.912278E-04


SCALARS Calcite_Rate         float 1
LOOKUP_TABLE default
-6.808035E-05 -7.177982E-05 -7.240276E-05 -7.210815E-05 -7.155730E-05 -7.098082E-05 -7.045860E-05 -7.001030E-05 -6.962882E-05 -6.929389E-05
-6.897791E-05 -6.864865E-05 -6.827060E-05 -6.780589E-05 -6.721521E-05 -6.645887E-05 -6.549835E-05 -6.429816E-05 -6.282817E-05 -6.107133E-05


SCALARS SiO2(am)_Rate        float 1
LOOKUP_TABLE default
 9.854340E-06  1.133917E-05  1.267548E-05  1.387287E-05  1.495682E-05  1.594955E-05  1.686829E-05  1.772605E-05  1.853265E-05  1.929549E-05
 2.002012E-05  2.071063E-05  2.136994E-05  2.200003E-05  2.260204E-05  2.317644E-05  2.372313E-05  2.424153E-05  2.473072E-05  2.518844E-05


SCALARS Calcite_Area         float 1
LOOKUP_TABLE default
 1.636526E+00  2.262983E+00  2.806486E+00  3.295863E+00  3.750419E+00  4.183970E+00  4.606779E+00  5.026722E+00  5.450009E+00  5.881640E+00
 6.325686E+00  6.785454E+00  7.263570E+00  7.762004E+00  8.282046E+00  8.824252E+00  9.388377E+00  9.973293E+00  1.057692E+01  1.119480E+01


SCALARS SiO2(am)_Area        float 1
LOOKUP_TABLE default
 1.421095E+05  1.352883E+05  1.308687E+05  1.276710E+05  1.252093E+05  1.232389E+05  1.216198E+05  1.202650E+05  1.191171E+05  1.181360E+05
 1.172929E+05  1.165663E+05  1.159399E+05  1.154007E+05  1.149385E+05  1.145449E+05  1.142130E+05  1.139369E+05  1.137114E+05  1.135325E+05


SCALARS Material_ID          int 1
LOOKUP_TABLE default
  1
  1
  1
  1
  1
  1
  1
  1
  1
  1
  1
  1
  1
  1
  1
  1
  1
  1
  1
  1


