# vtk DataFile Version 2.0
PFLOTRAN output
ASCII
DATASET UNSTRUCTURED_GRID
POINTS           84 float
 0.000000E+00  0.000000E+00  0.000000E+00
 7.580000E-03  0.000000E+00  0.000000E+00
 1.516000E-02  0.000000E+00  0.000000E+00
 2.274000E-02  0.000000E+00  0.000000E+00
 3.032000E-02  0.000000E+00  0.000000E+00
 3.790000E-02  0.000000E+00  0.000000E+00
 4.548000E-02  0.000000E+00  0.000000E+00
 5.306000E-02  0.000000E+00  0.000000E+00
 6.064000E-02  0.000000E+00  0.000000E+00
 6.822000E-02  0.000000E+00  0.000000E+00
 7.580000E-02  0.000000E+00  0.000000E+00
 8.338000E-02  0.000000E+00  0.000000E+00
 9.096000E-02  0.000000E+00  0.000000E+00
 9.854000E-02  0.000000E+00  0.000000E+00
 1.061200E-01  0.000000E+00  0.000000E+00
 1.137000E-01  0.000000E+00  0.000000E+00
 1.212800E-01  0.000000E+00  0.000000E+00
 1.288600E-01  0.000000E+00  0.000000E+00
 1.364400E-01  0.000000E+00  0.000000E+00
 1.440200E-01  0.000000E+00  0.000000E+00
 1.516000E-01  0.000000E+00  0.000000E+00
 0.000000E+00  1.125000E-02  0.000000E+00
 7.580000E-03  1.125000E-02  0.000000E+00
 1.516000E-02  1.125000E-02  0.000000E+00
 2.274000E-02  1.125000E-02  0.000000E+00
 3.032000E-02  1.125000E-02  0.000000E+00
 3.790000E-02  1.125000E-02  0.000000E+00
 4.548000E-02  1.125000E-02  0.000000E+00
 5.306000E-02  1.125000E-02  0.000000E+00
 6.064000E-02  1.125000E-02  0.000000E+00
 6.822000E-02  1.125000E-02  0.000000E+00
 7.580000E-02  1.125000E-02  0.000000E+00
 8.338000E-02  1.125000E-02  0.000000E+00
 9.096000E-02  1.125000E-02  0.000000E+00
 9.854000E-02  1.125000E-02  0.000000E+00
 1.061200E-01  1.125000E-02  0.000000E+00
 1.137000E-01  1.125000E-02  0.000000E+00
 1.212800E-01  1.125000E-02  0.000000E+00
 1.288600E-01  1.125000E-02  0.000000E+00
 1.364400E-01  1.125000E-02  0.000000E+00
 1.440200E-01  1.125000E-02  0.000000E+00
 1.516000E-01  1.125000E-02  0.000000E+00
 0.000000E+00  0.000000E+00  1.125000E-02
 7.580000E-03  0.000000E+00  1.125000E-02
 1.516000E-02  0.000000E+00  1.125000E-02
 2.274000E-02  0.000000E+00  1.125000E-02
 3.032000E-02  0.000000E+00  1.125000E-02
 3.790000E-02  0.000000E+00  1.125000E-02
 4.548000E-02  0.000000E+00  1.125000E-02
 5.306000E-02  0.000000E+00  1.125000E-02
 6.064000E-02  0.000000E+00  1.125000E-02
 6.822000E-02  0.000000E+00  1.125000E-02
 7.580000E-02  0.000000E+00  1.125000E-02
 8.338000E-02  0.000000E+00  1.125000E-02
 9.096000E-02  0.000000E+00  1.125000E-02
 9.854000E-02  0.000000E+00  1.125000E-02
 1.061200E-01  0.000000E+00  1.125000E-02
 1.137000E-01  0.000000E+00  1.125000E-02
 1.212800E-01  0.000000E+00  1.125000E-02
 1.288600E-01  0.000000E+00  1.125000E-02
 1.364400E-01  0.000000E+00  1.125000E-02
 1.440200E-01  0.000000E+00  1.125000E-02
 1.516000E-01  0.000000E+00  1.125000E-02
 0.000000E+00  1.125000E-02  1.125000E-02
 7.580000E-03  1.125000E-02  1.125000E-02
 1.516000E-02  1.125000E-02  1.125000E-02
 2.274000E-02  1.125000E-02  1.125000E-02
 3.032000E-02  1.125000E-02  1.125000E-02
 3.790000E-02  1.125000E-02  1.125000E-02
 4.548000E-02  1.125000E-02  1.125000E-02
 5.306000E-02  1.125000E-02  1.125000E-02
 6.064000E-02  1.125000E-02  1.125000E-02
 6.822000E-02  1.125000E-02  1.125000E-02
 7.580000E-02  1.125000E-02  1.125000E-02
 8.338000E-02  1.125000E-02  1.125000E-02
 9.096000E-02  1.125000E-02  1.125000E-02
 9.854000E-02  1.125000E-02  1.125000E-02
 1.061200E-01  1.125000E-02  1.125000E-02
 1.137000E-01  1.125000E-02  1.125000E-02
 1.212800E-01  1.125000E-02  1.125000E-02
 1.288600E-01  1.125000E-02  1.125000E-02
 1.364400E-01  1.125000E-02  1.125000E-02
 1.440200E-01  1.125000E-02  1.125000E-02
 1.516000E-01  1.125000E-02  1.125000E-02
CELLS           20          180
8        0        1       22       21       42       43       64       63
8        1        2       23       22       43       44       65       64
8        2        3       24       23       44       45       66       65
8        3        4       25       24       45       46       67       66
8        4        5       26       25       46       47       68       67
8        5        6       27       26       47       48       69       68
8        6        7       28       27       48       49       70       69
8        7        8       29       28       49       50       71       70
8        8        9       30       29       50       51       72       71
8        9       10       31       30       51       52       73       72
8       10       11       32       31       52       53       74       73
8       11       12       33       32       53       54       75       74
8       12       13       34       33       54       55       76       75
8       13       14       35       34       55       56       77       76
8       14       15       36       35       56       57       78       77
8       15       16       37       36       57       58       79       78
8       16       17       38       37       58       59       80       79
8       17       18       39       38       59       60       81       80
8       18       19       40       39       60       61       82       81
8       19       20       41       40       61       62       83       82

CELL_TYPES           20
12
12
12
12
12
12
12
12
12
12
12
12
12
12
12
12
12
12
12
12

CELL_DATA       20
SCALARS Porosity             float 1
LOOKUP_TABLE default
 9.893963E-01  9.890982E-01  9.888536E-01  9.886436E-01  9.884586E-01  9.882928E-01  9.881421E-01  9.880034E-01  9.878747E-01  9.877541E-01
 9.876404E-01  9.875324E-01  9.874292E-01  9.873302E-01  9.872347E-01  9.871422E-01  9.870522E-01  9.869645E-01  9.868785E-01  9.867943E-01


SCALARS Permeability_X       float 1
LOOKUP_TABLE default
 1.000000E-12  1.000000E-12  1.000000E-12  1.000000E-12  1.000000E-12  1.000000E-12  1.000000E-12  1.000000E-12  1.000000E-12  1.000000E-12
 1.000000E-12  1.000000E-12  1.000000E-12  1.000000E-12  1.000000E-12  1.000000E-12  1.000000E-12  1.000000E-12  1.000000E-12  1.000000E-12


SCALARS Liquid_Pressure      float 1
LOOKUP_TABLE default
 7.500296E+06  7.500281E+06  7.500266E+06  7.500250E+06  7.500235E+06  7.500220E+06  7.500205E+06  7.500190E+06  7.500175E+06  7.500159E+06
 7.500144E+06  7.500129E+06  7.500114E+06  7.500099E+06  7.500083E+06  7.500068E+06  7.500053E+06  7.500038E+06  7.500023E+06  7.500008E+06


SCALARS Temperature          float 1
LOOKUP_TABLE default
 1.500000E+02  1.500000E+02  1.500000E+02  1.500000E+02  1.500000E+02  1.499999E+02  1.499999E+02  1.499999E+02  1.499999E+02  1.499999E+02
 1.499999E+02  1.499999E+02  1.499999E+02  1.499999E+02  1.499999E+02  1.499999E+02  1.499999E+02  1.499999E+02  1.499999E+02  1.500000E+02


SCALARS pH                   float 1
LOOKUP_TABLE default
 4.779137E+00  4.836647E+00  4.891927E+00  4.944024E+00  4.992695E+00  5.038031E+00  5.080272E+00  5.119708E+00  5.156631E+00  5.191314E+00
 5.224005E+00  5.254925E+00  5.284267E+00  5.312200E+00  5.338873E+00  5.364417E+00  5.388944E+00  5.412557E+00  5.435342E+00  5.457322E+00


SCALARS Total_H+             float 1
LOOKUP_TABLE default
-3.504926E-04 -3.796250E-04 -4.108457E-04 -4.435983E-04 -4.775205E-04 -5.123709E-04 -5.479877E-04 -5.842629E-04 -6.211257E-04 -6.585317E-04
-6.964555E-04 -7.348857E-04 -7.738213E-04 -8.132692E-04 -8.532423E-04 -8.937587E-04 -9.348399E-04 -9.765110E-04 -1.018799E-03 -1.061619E-03


SCALARS Total_SiO2(aq)       float 1
LOOKUP_TABLE default
 1.405441E-02  1.404926E-02  1.404389E-02  1.403828E-02  1.403243E-02  1.402634E-02  1.402001E-02  1.401344E-02  1.400663E-02  1.399960E-02
 1.399234E-02  1.398487E-02  1.397718E-02  1.396927E-02  1.396116E-02  1.395284E-02  1.394432E-02  1.393560E-02  1.392668E-02  1.391759E-02


SCALARS Total_Al+++          float 1
LOOKUP_TABLE default
 6.015348E-05  6.015348E-05  6.015348E-05  6.015348E-05  6.015348E-05  6.015348E-05  6.015348E-05  6.015348E-05  6.015348E-05  6.015348E-05
 6.015348E-05  6.015348E-05  6.015348E-05  6.015348E-05  6.015348E-05  6.015348E-05  6.015348E-05  6.015348E-05  6.015348E-05  6.015348E-05


SCALARS Total_Ca++           float 1
LOOKUP_TABLE default
 8.271340E-05  9.727957E-05  1.128899E-04  1.292662E-04  1.462273E-04  1.636525E-04  1.814609E-04  1.995985E-04  2.180299E-04  2.367329E-04
 2.556948E-04  2.749099E-04  2.943777E-04  3.141016E-04  3.340882E-04  3.543464E-04  3.748870E-04  3.957225E-04  4.168665E-04  4.382768E-04


SCALARS Total_Cl-            float 1
LOOKUP_TABLE default
 2.513233E-02  2.513233E-02  2.513233E-02  2.513233E-02  2.513233E-02  2.513233E-02  2.513233E-02  2.513233E-02  2.513233E-02  2.513233E-02
 2.513233E-02  2.513233E-02  2.513233E-02  2.513233E-02  2.513233E-02  2.513233E-02  2.513233E-02  2.513233E-02  2.513233E-02  2.513233E-02


SCALARS Total_CO2(aq)        float 1
LOOKUP_TABLE default
 1.357941E-02  1.359398E-02  1.360959E-02  1.362597E-02  1.364293E-02  1.366035E-02  1.367816E-02  1.369630E-02  1.371473E-02  1.373343E-02
 1.375239E-02  1.377161E-02  1.379108E-02  1.381080E-02  1.383079E-02  1.385105E-02  1.387159E-02  1.389242E-02  1.391357E-02  1.393498E-02


SCALARS Total_Na+            float 1
LOOKUP_TABLE default
 3.122900E-02  3.122900E-02  3.122900E-02  3.122900E-02  3.122900E-02  3.122900E-02  3.122900E-02  3.122900E-02  3.122900E-02  3.122900E-02
 3.122900E-02  3.122900E-02  3.122900E-02  3.122900E-02  3.122900E-02  3.122900E-02  3.122900E-02  3.122900E-02  3.122900E-02  3.122900E-02


SCALARS Total_K+             float 1
LOOKUP_TABLE default
 2.655416E-03  2.655416E-03  2.655416E-03  2.655416E-03  2.655416E-03  2.655416E-03  2.655416E-03  2.655416E-03  2.655416E-03  2.655416E-03
 2.655416E-03  2.655416E-03  2.655416E-03  2.655416E-03  2.655416E-03  2.655416E-03  2.655416E-03  2.655416E-03  2.655416E-03  2.655416E-03


SCALARS Total_Mg++           float 1
LOOKUP_TABLE default
 8.216757E-07  8.216757E-07  8.216757E-07  8.216757E-07  8.216757E-07  8.216757E-07  8.216757E-07  8.216757E-07  8.216757E-07  8.216757E-07
 8.216757E-07  8.216757E-07  8.216757E-07  8.216756E-07  8.216756E-07  8.216756E-07  8.216756E-07  8.216756E-07  8.216756E-07  8.216756E-07


SCALARS Total_Fe++           float 1
LOOKUP_TABLE default
 1.251593E-06  1.251593E-06  1.251593E-06  1.251593E-06  1.251593E-06  1.251593E-06  1.251593E-06  1.251593E-06  1.251593E-06  1.251593E-06
 1.251593E-06  1.251593E-06  1.251593E-06  1.251593E-06  1.251593E-06  1.251592E-06  1.251592E-06  1.251592E-06  1.251592E-06  1.251592E-06


SCALARS Total_Cu++           float 1
LOOKUP_TABLE default
 9.952832E-11  9.952832E-11  9.952832E-11  9.952832E-11  9.952832E-11  9.952832E-11  9.952832E-11  9.952832E-11  9.952832E-11  9.952832E-11
 9.952832E-11  9.952832E-11  9.952832E-11  9.952832E-11  9.952832E-11  9.952832E-11  9.952832E-11  9.952832E-11  9.952832E-11  9.952832E-11


SCALARS Total_SO4--          float 1
LOOKUP_TABLE default
 4.376188E-03  4.376188E-03  4.376188E-03  4.376188E-03  4.376188E-03  4.376188E-03  4.376188E-03  4.376188E-03  4.376188E-03  4.376188E-03
 4.376188E-03  4.376188E-03  4.376188E-03  4.376188E-03  4.376188E-03  4.376188E-03  4.376188E-03  4.376188E-03  4.376188E-03  4.376188E-03


SCALARS Total_Tracer         float 1
LOOKUP_TABLE default
 9.952832E-11  9.952832E-11  9.952832E-11  9.952832E-11  9.952832E-11  9.952832E-11  9.952832E-11  9.952832E-11  9.952832E-11  9.952832E-11
 9.952832E-11  9.952832E-11  9.952832E-11  9.952832E-11  9.952832E-11  9.952832E-11  9.952832E-11  9.952832E-11  9.952832E-11  9.952832E-11


SCALARS Active_Gas_CO2(g)    float 1
LOOKUP_TABLE default
 0.000000E+00  0.000000E+00  0.000000E+00  0.000000E+00  0.000000E+00  0.000000E+00  0.000000E+00  0.000000E+00  0.000000E+00  0.000000E+00
 0.000000E+00  0.000000E+00  0.000000E+00  0.000000E+00  0.000000E+00  0.000000E+00  0.000000E+00  0.000000E+00  0.000000E+00  0.000000E+00


SCALARS HCO3-                float 1
LOOKUP_TABLE default
 1.833504E-04  2.091398E-04  2.373108E-04  2.672892E-04  2.986696E-04  3.311652E-04  3.645740E-04  3.987545E-04  4.336091E-04  4.690717E-04
 5.050995E-04  5.416665E-04  5.787598E-04  6.163763E-04  6.545203E-04  6.932020E-04  7.324365E-04  7.722422E-04  8.126409E-04  8.535476E-04


SCALARS H2SiO4--             float 1
LOOKUP_TABLE default
 4.347294E-13  5.663988E-13  7.304015E-13  9.281798E-13  1.161031E-12  1.430153E-12  1.736706E-12  2.081871E-12  2.466883E-12  2.893066E-12
 3.361854E-12  3.874810E-12  4.433638E-12  5.040201E-12  5.696528E-12  6.404832E-12  7.167516E-12  7.987186E-12  8.866660E-12  9.806422E-12


SCALARS H3SiO4-              float 1
LOOKUP_TABLE default
 1.456009E-06  1.661578E-06  1.886427E-06  2.126033E-06  2.377201E-06  2.637670E-06  2.905851E-06  3.180632E-06  3.461251E-06  3.747193E-06
 4.038132E-06  4.333876E-06  4.634338E-06  4.939512E-06  5.249453E-06  5.564266E-06  5.884095E-06  6.209118E-06  6.539538E-06  6.874690E-06


SCALARS Calcite_VF           float 1
LOOKUP_TABLE default
 9.927921E-03  1.014381E-02  1.031891E-02  1.046828E-02  1.059929E-02  1.071646E-02  1.082290E-02  1.092085E-02  1.101202E-02  1.109770E-02
 1.117893E-02  1.125654E-02  1.133120E-02  1.140348E-02  1.147383E-02  1.154266E-02  1.161029E-02  1.167703E-02  1.174313E-02  1.180864E-02


SCALARS SiO2(am)_VF          float 1
LOOKUP_TABLE default
 6.708713E-04  7.524337E-04  8.214628E-04  8.817832E-04  9.355192E-04  9.840289E-04  1.028252E-03  1.068870E-03  1.106399E-03  1.141236E-03
 1.173699E-03  1.204042E-03  1.232473E-03  1.259165E-03  1.284264E-03  1.307892E-03  1.330154E-03  1.351140E-03  1.370928E-03  1.389542E-03


SCALARS Calcite_Rate         float 1
LOOKUP_TABLE default
-1.738647E-05 -1.938254E-05 -2.076591E-05 -2.177805E-05 -2.254861E-05 -2.315825E-05 -2.365996E-05 -2.408961E-05 -2.447206E-05 -2.482487E-05
-2.516070E-05 -2.548882E-05 -2.581617E-05 -2.614799E-05 -2.648837E-05 -2.684050E-05 -2.720695E-05 -2.758979E-05 -2.799074E-05 -2.841025E-05


SCALARS SiO2(am)_Rate        float 1
LOOKUP_TABLE default
 6.624430E-06  6.862181E-06  7.151567E-06  7.463845E-06  7.784840E-06  8.107077E-06  8.426569E-06  8.741249E-06  9.050147E-06  9.352919E-06
 9.649590E-06  9.940393E-06  1.022568E-05  1.050585E-05  1.078135E-05  1.105262E-05  1.132008E-05  1.158417E-05  1.184528E-05  1.210312E-05


SCALARS Calcite_Area         float 1
LOOKUP_TABLE default
 3.231701E-01  4.009905E-01  4.760326E-01  5.497577E-01  6.226820E-01  6.951382E-01  7.674264E-01  8.398473E-01  9.127075E-01  9.863189E-01
 1.060998E+00  1.137065E+00  1.214845E+00  1.294672E+00  1.376886E+00  1.461841E+00  1.549905E+00  1.641463E+00  1.736922E+00  1.836455E+00


SCALARS SiO2(am)_Area        float 1
LOOKUP_TABLE default
 1.143495E+05  1.100501E+05  1.068723E+05  1.043749E+05  1.023354E+05  1.006245E+05  9.916033E+04  9.788783E+04  9.676832E+04  9.577362E+04
 9.488262E+04  9.407914E+04  9.335049E+04  9.268660E+04  9.207932E+04  9.152199E+04  9.100910E+04  9.053605E+04  9.009896E+04  8.969550E+04


SCALARS Material_ID          int 1
LOOKUP_TABLE default
  1
  1
  1
  1
  1
  1
  1
  1
  1
  1
  1
  1
  1
  1
  1
  1
  1
  1
  1
  1


