# vtk DataFile Version 2.0
PFLOTRAN output
ASCII
DATASET UNSTRUCTURED_GRID
POINTS           84 float
 0.000000E+00  0.000000E+00  0.000000E+00
 7.580000E-03  0.000000E+00  0.000000E+00
 1.516000E-02  0.000000E+00  0.000000E+00
 2.274000E-02  0.000000E+00  0.000000E+00
 3.032000E-02  0.000000E+00  0.000000E+00
 3.790000E-02  0.000000E+00  0.000000E+00
 4.548000E-02  0.000000E+00  0.000000E+00
 5.306000E-02  0.000000E+00  0.000000E+00
 6.064000E-02  0.000000E+00  0.000000E+00
 6.822000E-02  0.000000E+00  0.000000E+00
 7.580000E-02  0.000000E+00  0.000000E+00
 8.338000E-02  0.000000E+00  0.000000E+00
 9.096000E-02  0.000000E+00  0.000000E+00
 9.854000E-02  0.000000E+00  0.000000E+00
 1.061200E-01  0.000000E+00  0.000000E+00
 1.137000E-01  0.000000E+00  0.000000E+00
 1.212800E-01  0.000000E+00  0.000000E+00
 1.288600E-01  0.000000E+00  0.000000E+00
 1.364400E-01  0.000000E+00  0.000000E+00
 1.440200E-01  0.000000E+00  0.000000E+00
 1.516000E-01  0.000000E+00  0.000000E+00
 0.000000E+00  1.125000E-02  0.000000E+00
 7.580000E-03  1.125000E-02  0.000000E+00
 1.516000E-02  1.125000E-02  0.000000E+00
 2.274000E-02  1.125000E-02  0.000000E+00
 3.032000E-02  1.125000E-02  0.000000E+00
 3.790000E-02  1.125000E-02  0.000000E+00
 4.548000E-02  1.125000E-02  0.000000E+00
 5.306000E-02  1.125000E-02  0.000000E+00
 6.064000E-02  1.125000E-02  0.000000E+00
 6.822000E-02  1.125000E-02  0.000000E+00
 7.580000E-02  1.125000E-02  0.000000E+00
 8.338000E-02  1.125000E-02  0.000000E+00
 9.096000E-02  1.125000E-02  0.000000E+00
 9.854000E-02  1.125000E-02  0.000000E+00
 1.061200E-01  1.125000E-02  0.000000E+00
 1.137000E-01  1.125000E-02  0.000000E+00
 1.212800E-01  1.125000E-02  0.000000E+00
 1.288600E-01  1.125000E-02  0.000000E+00
 1.364400E-01  1.125000E-02  0.000000E+00
 1.440200E-01  1.125000E-02  0.000000E+00
 1.516000E-01  1.125000E-02  0.000000E+00
 0.000000E+00  0.000000E+00  1.125000E-02
 7.580000E-03  0.000000E+00  1.125000E-02
 1.516000E-02  0.000000E+00  1.125000E-02
 2.274000E-02  0.000000E+00  1.125000E-02
 3.032000E-02  0.000000E+00  1.125000E-02
 3.790000E-02  0.000000E+00  1.125000E-02
 4.548000E-02  0.000000E+00  1.125000E-02
 5.306000E-02  0.000000E+00  1.125000E-02
 6.064000E-02  0.000000E+00  1.125000E-02
 6.822000E-02  0.000000E+00  1.125000E-02
 7.580000E-02  0.000000E+00  1.125000E-02
 8.338000E-02  0.000000E+00  1.125000E-02
 9.096000E-02  0.000000E+00  1.125000E-02
 9.854000E-02  0.000000E+00  1.125000E-02
 1.061200E-01  0.000000E+00  1.125000E-02
 1.137000E-01  0.000000E+00  1.125000E-02
 1.212800E-01  0.000000E+00  1.125000E-02
 1.288600E-01  0.000000E+00  1.125000E-02
 1.364400E-01  0.000000E+00  1.125000E-02
 1.440200E-01  0.000000E+00  1.125000E-02
 1.516000E-01  0.000000E+00  1.125000E-02
 0.000000E+00  1.125000E-02  1.125000E-02
 7.580000E-03  1.125000E-02  1.125000E-02
 1.516000E-02  1.125000E-02  1.125000E-02
 2.274000E-02  1.125000E-02  1.125000E-02
 3.032000E-02  1.125000E-02  1.125000E-02
 3.790000E-02  1.125000E-02  1.125000E-02
 4.548000E-02  1.125000E-02  1.125000E-02
 5.306000E-02  1.125000E-02  1.125000E-02
 6.064000E-02  1.125000E-02  1.125000E-02
 6.822000E-02  1.125000E-02  1.125000E-02
 7.580000E-02  1.125000E-02  1.125000E-02
 8.338000E-02  1.125000E-02  1.125000E-02
 9.096000E-02  1.125000E-02  1.125000E-02
 9.854000E-02  1.125000E-02  1.125000E-02
 1.061200E-01  1.125000E-02  1.125000E-02
 1.137000E-01  1.125000E-02  1.125000E-02
 1.212800E-01  1.125000E-02  1.125000E-02
 1.288600E-01  1.125000E-02  1.125000E-02
 1.364400E-01  1.125000E-02  1.125000E-02
 1.440200E-01  1.125000E-02  1.125000E-02
 1.516000E-01  1.125000E-02  1.125000E-02
CELLS           20          180
8        0        1       22       21       42       43       64       63
8        1        2       23       22       43       44       65       64
8        2        3       24       23       44       45       66       65
8        3        4       25       24       45       46       67       66
8        4        5       26       25       46       47       68       67
8        5        6       27       26       47       48       69       68
8        6        7       28       27       48       49       70       69
8        7        8       29       28       49       50       71       70
8        8        9       30       29       50       51       72       71
8        9       10       31       30       51       52       73       72
8       10       11       32       31       52       53       74       73
8       11       12       33       32       53       54       75       74
8       12       13       34       33       54       55       76       75
8       13       14       35       34       55       56       77       76
8       14       15       36       35       56       57       78       77
8       15       16       37       36       57       58       79       78
8       16       17       38       37       58       59       80       79
8       17       18       39       38       59       60       81       80
8       18       19       40       39       60       61       82       81
8       19       20       41       40       61       62       83       82

CELL_TYPES           20
12
12
12
12
12
12
12
12
12
12
12
12
12
12
12
12
12
12
12
12

CELL_DATA       20
SCALARS Porosity             float 1
LOOKUP_TABLE default
 9.860132E-01  9.856948E-01  9.855193E-01  9.853981E-01  9.853042E-01  9.852266E-01  9.851598E-01  9.851012E-01  9.850490E-01  9.850025E-01
 9.849609E-01  9.849238E-01  9.848910E-01  9.848619E-01  9.848365E-01  9.848143E-01  9.847951E-01  9.847785E-01  9.847644E-01  9.847523E-01


SCALARS Permeability_X       float 1
LOOKUP_TABLE default
 1.000000E-12  1.000000E-12  1.000000E-12  1.000000E-12  1.000000E-12  1.000000E-12  1.000000E-12  1.000000E-12  1.000000E-12  1.000000E-12
 1.000000E-12  1.000000E-12  1.000000E-12  1.000000E-12  1.000000E-12  1.000000E-12  1.000000E-12  1.000000E-12  1.000000E-12  1.000000E-12


SCALARS Liquid_Pressure      float 1
LOOKUP_TABLE default
 7.500296E+06  7.500281E+06  7.500266E+06  7.500250E+06  7.500235E+06  7.500220E+06  7.500205E+06  7.500190E+06  7.500175E+06  7.500159E+06
 7.500144E+06  7.500129E+06  7.500114E+06  7.500099E+06  7.500083E+06  7.500068E+06  7.500053E+06  7.500038E+06  7.500023E+06  7.500008E+06


SCALARS Temperature          float 1
LOOKUP_TABLE default
 1.499999E+02  1.499999E+02  1.499998E+02  1.499997E+02  1.499997E+02  1.499996E+02  1.499996E+02  1.499996E+02  1.499995E+02  1.499995E+02
 1.499995E+02  1.499995E+02  1.499995E+02  1.499996E+02  1.499996E+02  1.499996E+02  1.499997E+02  1.499997E+02  1.499998E+02  1.499999E+02


SCALARS pH                   float 1
LOOKUP_TABLE default
 5.188558E+00  5.391851E+00  5.518477E+00  5.609233E+00  5.679154E+00  5.735353E+00  5.781735E+00  5.820669E+00  5.853711E+00  5.881943E+00
 5.906163E+00  5.926984E+00  5.944894E+00  5.960298E+00  5.973536E+00  5.984898E+00  5.994637E+00  6.002974E+00  6.010099E+00  6.016169E+00


SCALARS Total_H+             float 1
LOOKUP_TABLE default
-6.554735E-04 -9.399092E-04 -1.192156E-03 -1.420355E-03 -1.628930E-03 -1.820411E-03 -1.996313E-03 -2.157604E-03 -2.304973E-03 -2.438994E-03
-2.560219E-03 -2.669241E-03 -2.766711E-03 -2.853347E-03 -2.929923E-03 -2.997248E-03 -3.056150E-03 -3.107452E-03 -3.151952E-03 -3.190337E-03


SCALARS Total_SiO2(aq)       float 1
LOOKUP_TABLE default
 1.404615E-02  1.402952E-02  1.401044E-02  1.398940E-02  1.396674E-02  1.394274E-02  1.391757E-02  1.389142E-02  1.386443E-02  1.383671E-02
 1.380839E-02  1.377957E-02  1.375033E-02  1.372077E-02  1.369094E-02  1.366091E-02  1.363075E-02  1.360050E-02  1.357021E-02  1.353999E-02


SCALARS Total_Al+++          float 1
LOOKUP_TABLE default
 6.015348E-05  6.015348E-05  6.015348E-05  6.015348E-05  6.015348E-05  6.015349E-05  6.015349E-05  6.015348E-05  6.015348E-05  6.015348E-05
 6.015348E-05  6.015348E-05  6.015347E-05  6.015347E-05  6.015347E-05  6.015346E-05  6.015346E-05  6.015345E-05  6.015345E-05  6.015345E-05


SCALARS Total_Ca++           float 1
LOOKUP_TABLE default
 2.352038E-04  3.774217E-04  5.035451E-04  6.176445E-04  7.219321E-04  8.176725E-04  9.056235E-04  9.862691E-04  1.059954E-03  1.126964E-03
 1.187577E-03  1.242088E-03  1.290823E-03  1.334141E-03  1.372428E-03  1.406091E-03  1.435542E-03  1.461193E-03  1.483443E-03  1.502636E-03


SCALARS Total_Cl-            float 1
LOOKUP_TABLE default
 2.513233E-02  2.513233E-02  2.513233E-02  2.513233E-02  2.513233E-02  2.513233E-02  2.513233E-02  2.513233E-02  2.513233E-02  2.513233E-02
 2.513233E-02  2.513233E-02  2.513233E-02  2.513233E-02  2.513233E-02  2.513233E-02  2.513233E-02  2.513233E-02  2.513233E-02  2.513233E-02


SCALARS Total_CO2(aq)        float 1
LOOKUP_TABLE default
 1.373190E-02  1.387412E-02  1.400025E-02  1.411434E-02  1.421863E-02  1.431437E-02  1.440232E-02  1.448297E-02  1.455665E-02  1.462366E-02
 1.468428E-02  1.473879E-02  1.478752E-02  1.483084E-02  1.486913E-02  1.490279E-02  1.493224E-02  1.495789E-02  1.498014E-02  1.499933E-02


SCALARS Total_Na+            float 1
LOOKUP_TABLE default
 3.122900E-02  3.122900E-02  3.122900E-02  3.122900E-02  3.122900E-02  3.122900E-02  3.122900E-02  3.122900E-02  3.122900E-02  3.122900E-02
 3.122900E-02  3.122900E-02  3.122900E-02  3.122900E-02  3.122900E-02  3.122900E-02  3.122900E-02  3.122900E-02  3.122900E-02  3.122900E-02


SCALARS Total_K+             float 1
LOOKUP_TABLE default
 2.655416E-03  2.655416E-03  2.655416E-03  2.655416E-03  2.655416E-03  2.655416E-03  2.655416E-03  2.655416E-03  2.655416E-03  2.655416E-03
 2.655416E-03  2.655416E-03  2.655416E-03  2.655416E-03  2.655416E-03  2.655415E-03  2.655415E-03  2.655415E-03  2.655415E-03  2.655415E-03


SCALARS Total_Mg++           float 1
LOOKUP_TABLE default
 8.216757E-07  8.216757E-07  8.216757E-07  8.216757E-07  8.216757E-07  8.216757E-07  8.216757E-07  8.216757E-07  8.216757E-07  8.216757E-07
 8.216756E-07  8.216756E-07  8.216756E-07  8.216756E-07  8.216756E-07  8.216756E-07  8.216756E-07  8.216756E-07  8.216756E-07  8.216756E-07


SCALARS Total_Fe++           float 1
LOOKUP_TABLE default
 1.251593E-06  1.251593E-06  1.251593E-06  1.251593E-06  1.251593E-06  1.251593E-06  1.251593E-06  1.251593E-06  1.251593E-06  1.251593E-06
 1.251593E-06  1.251592E-06  1.251592E-06  1.251592E-06  1.251592E-06  1.251592E-06  1.251592E-06  1.251592E-06  1.251592E-06  1.251592E-06


SCALARS Total_Cu++           float 1
LOOKUP_TABLE default
 9.952832E-11  9.952832E-11  9.952832E-11  9.952832E-11  9.952832E-11  9.952832E-11  9.952832E-11  9.952832E-11  9.952832E-11  9.952832E-11
 9.952832E-11  9.952832E-11  9.952832E-11  9.952832E-11  9.952832E-11  9.952832E-11  9.952832E-11  9.952832E-11  9.952831E-11  9.952831E-11


SCALARS Total_SO4--          float 1
LOOKUP_TABLE default
 4.376188E-03  4.376188E-03  4.376188E-03  4.376188E-03  4.376188E-03  4.376188E-03  4.376188E-03  4.376188E-03  4.376188E-03  4.376188E-03
 4.376188E-03  4.376188E-03  4.376188E-03  4.376188E-03  4.376188E-03  4.376188E-03  4.376188E-03  4.376188E-03  4.376188E-03  4.376188E-03


SCALARS Total_Tracer         float 1
LOOKUP_TABLE default
 9.952832E-11  9.952832E-11  9.952832E-11  9.952832E-11  9.952832E-11  9.952832E-11  9.952832E-11  9.952832E-11  9.952832E-11  9.952832E-11
 9.952832E-11  9.952832E-11  9.952832E-11  9.952832E-11  9.952832E-11  9.952832E-11  9.952832E-11  9.952832E-11  9.952831E-11  9.952831E-11


SCALARS Active_Gas_CO2(g)    float 1
LOOKUP_TABLE default
 0.000000E+00  0.000000E+00  0.000000E+00  0.000000E+00  0.000000E+00  0.000000E+00  0.000000E+00  0.000000E+00  0.000000E+00  0.000000E+00
 0.000000E+00  0.000000E+00  0.000000E+00  0.000000E+00  0.000000E+00  0.000000E+00  0.000000E+00  0.000000E+00  0.000000E+00  0.000000E+00


SCALARS HCO3-                float 1
LOOKUP_TABLE default
 4.661580E-04  7.372434E-04  9.781455E-04  1.195741E-03  1.394117E-03  1.575712E-03  1.742039E-03  1.894108E-03  2.032663E-03  2.158336E-03
 2.271733E-03  2.373485E-03  2.464271E-03  2.544818E-03  2.615897E-03  2.678302E-03  2.732834E-03  2.780280E-03  2.821400E-03  2.856846E-03


SCALARS H2SiO4--             float 1
LOOKUP_TABLE default
 2.866194E-12  7.309274E-12  1.309135E-11  1.987268E-11  2.740156E-11  3.546327E-11  4.386141E-11  5.241241E-11  6.094616E-11  6.930926E-11
 7.736896E-11  8.501638E-11  9.216842E-11  9.876790E-11  1.047822E-10  1.102004E-10  1.150299E-10  1.192926E-10  1.230204E-10  1.262466E-10


SCALARS H3SiO4-              float 1
LOOKUP_TABLE default
 3.735908E-06  5.959942E-06  7.967779E-06  9.806097E-06  1.150176E-05  1.306964E-05  1.451790E-05  1.585116E-05  1.707238E-05  1.818402E-05
 1.918887E-05  2.009039E-05  2.089294E-05  2.160176E-05  2.222283E-05  2.276271E-05  2.322829E-05  2.362656E-05  2.396445E-05  2.424811E-05


SCALARS Calcite_VF           float 1
LOOKUP_TABLE default
 1.372399E-02  1.403535E-02  1.420595E-02  1.432331E-02  1.441438E-02  1.449016E-02  1.455590E-02  1.461429E-02  1.466680E-02  1.471428E-02
 1.475724E-02  1.479600E-02  1.483085E-02  1.486201E-02  1.488972E-02  1.491423E-02  1.493578E-02  1.495464E-02  1.497106E-02  1.498526E-02


SCALARS SiO2(am)_VF          float 1
LOOKUP_TABLE default
 1.803430E-04  2.015236E-04  2.161873E-04  2.272654E-04  2.359746E-04  2.429520E-04  2.485828E-04  2.531243E-04  2.567626E-04  2.596402E-04
 2.618711E-04  2.635496E-04  2.647557E-04  2.655579E-04  2.660156E-04  2.661801E-04  2.660964E-04  2.658035E-04  2.653349E-04  2.647220E-04


SCALARS Calcite_Rate         float 1
LOOKUP_TABLE default
-2.205039E-04 -1.884988E-04 -1.667962E-04 -1.505997E-04 -1.374123E-04 -1.259606E-04 -1.155611E-04 -1.058424E-04 -9.661272E-05 -8.778835E-05
-7.935124E-05 -7.132024E-05 -6.373127E-05 -5.662351E-05 -5.003021E-05 -4.397351E-05 -3.846223E-05 -3.349189E-05 -2.904628E-05 -2.510737E-05


SCALARS SiO2(am)_Rate        float 1
LOOKUP_TABLE default
 1.762551E-05  2.205888E-05  2.529372E-05  2.784363E-05  2.993452E-05  3.168565E-05  3.316769E-05  3.442634E-05  3.549338E-05  3.639252E-05
 3.714257E-05  3.775936E-05  3.825677E-05  3.864733E-05  3.894260E-05  3.915324E-05  3.928913E-05  3.935935E-05  3.937222E-05  3.933555E-05


SCALARS Calcite_Area         float 1
LOOKUP_TABLE default
 8.716955E+00  1.079571E+01  1.210071E+01  1.307455E+01  1.387577E+01  1.457404E+01  1.520324E+01  1.578045E+01  1.631421E+01  1.680853E+01
 1.726518E+01  1.768489E+01  1.806815E+01  1.841562E+01  1.872831E+01  1.900764E+01  1.925546E+01  1.947388E+01  1.966527E+01  1.983175E+01


SCALARS SiO2(am)_Area        float 1
LOOKUP_TABLE default
 1.788408E+05  1.725601E+05  1.687045E+05  1.660169E+05  1.640261E+05  1.625036E+05  1.613201E+05  1.603945E+05  1.596721E+05  1.591136E+05
 1.586894E+05  1.583767E+05  1.581570E+05  1.580155E+05  1.579396E+05  1.579192E+05  1.579454E+05  1.580108E+05  1.581091E+05  1.582346E+05


SCALARS Material_ID          int 1
LOOKUP_TABLE default
  1
  1
  1
  1
  1
  1
  1
  1
  1
  1
  1
  1
  1
  1
  1
  1
  1
  1
  1
  1


