# vtk DataFile Version 2.0
PFLOTRAN output
ASCII
DATASET UNSTRUCTURED_GRID
POINTS           84 float
 0.000000E+00  0.000000E+00  0.000000E+00
 7.580000E-03  0.000000E+00  0.000000E+00
 1.516000E-02  0.000000E+00  0.000000E+00
 2.274000E-02  0.000000E+00  0.000000E+00
 3.032000E-02  0.000000E+00  0.000000E+00
 3.790000E-02  0.000000E+00  0.000000E+00
 4.548000E-02  0.000000E+00  0.000000E+00
 5.306000E-02  0.000000E+00  0.000000E+00
 6.064000E-02  0.000000E+00  0.000000E+00
 6.822000E-02  0.000000E+00  0.000000E+00
 7.580000E-02  0.000000E+00  0.000000E+00
 8.338000E-02  0.000000E+00  0.000000E+00
 9.096000E-02  0.000000E+00  0.000000E+00
 9.854000E-02  0.000000E+00  0.000000E+00
 1.061200E-01  0.000000E+00  0.000000E+00
 1.137000E-01  0.000000E+00  0.000000E+00
 1.212800E-01  0.000000E+00  0.000000E+00
 1.288600E-01  0.000000E+00  0.000000E+00
 1.364400E-01  0.000000E+00  0.000000E+00
 1.440200E-01  0.000000E+00  0.000000E+00
 1.516000E-01  0.000000E+00  0.000000E+00
 0.000000E+00  1.125000E-02  0.000000E+00
 7.580000E-03  1.125000E-02  0.000000E+00
 1.516000E-02  1.125000E-02  0.000000E+00
 2.274000E-02  1.125000E-02  0.000000E+00
 3.032000E-02  1.125000E-02  0.000000E+00
 3.790000E-02  1.125000E-02  0.000000E+00
 4.548000E-02  1.125000E-02  0.000000E+00
 5.306000E-02  1.125000E-02  0.000000E+00
 6.064000E-02  1.125000E-02  0.000000E+00
 6.822000E-02  1.125000E-02  0.000000E+00
 7.580000E-02  1.125000E-02  0.000000E+00
 8.338000E-02  1.125000E-02  0.000000E+00
 9.096000E-02  1.125000E-02  0.000000E+00
 9.854000E-02  1.125000E-02  0.000000E+00
 1.061200E-01  1.125000E-02  0.000000E+00
 1.137000E-01  1.125000E-02  0.000000E+00
 1.212800E-01  1.125000E-02  0.000000E+00
 1.288600E-01  1.125000E-02  0.000000E+00
 1.364400E-01  1.125000E-02  0.000000E+00
 1.440200E-01  1.125000E-02  0.000000E+00
 1.516000E-01  1.125000E-02  0.000000E+00
 0.000000E+00  0.000000E+00  1.125000E-02
 7.580000E-03  0.000000E+00  1.125000E-02
 1.516000E-02  0.000000E+00  1.125000E-02
 2.274000E-02  0.000000E+00  1.125000E-02
 3.032000E-02  0.000000E+00  1.125000E-02
 3.790000E-02  0.000000E+00  1.125000E-02
 4.548000E-02  0.000000E+00  1.125000E-02
 5.306000E-02  0.000000E+00  1.125000E-02
 6.064000E-02  0.000000E+00  1.125000E-02
 6.822000E-02  0.000000E+00  1.125000E-02
 7.580000E-02  0.000000E+00  1.125000E-02
 8.338000E-02  0.000000E+00  1.125000E-02
 9.096000E-02  0.000000E+00  1.125000E-02
 9.854000E-02  0.000000E+00  1.125000E-02
 1.061200E-01  0.000000E+00  1.125000E-02
 1.137000E-01  0.000000E+00  1.125000E-02
 1.212800E-01  0.000000E+00  1.125000E-02
 1.288600E-01  0.000000E+00  1.125000E-02
 1.364400E-01  0.000000E+00  1.125000E-02
 1.440200E-01  0.000000E+00  1.125000E-02
 1.516000E-01  0.000000E+00  1.125000E-02
 0.000000E+00  1.125000E-02  1.125000E-02
 7.580000E-03  1.125000E-02  1.125000E-02
 1.516000E-02  1.125000E-02  1.125000E-02
 2.274000E-02  1.125000E-02  1.125000E-02
 3.032000E-02  1.125000E-02  1.125000E-02
 3.790000E-02  1.125000E-02  1.125000E-02
 4.548000E-02  1.125000E-02  1.125000E-02
 5.306000E-02  1.125000E-02  1.125000E-02
 6.064000E-02  1.125000E-02  1.125000E-02
 6.822000E-02  1.125000E-02  1.125000E-02
 7.580000E-02  1.125000E-02  1.125000E-02
 8.338000E-02  1.125000E-02  1.125000E-02
 9.096000E-02  1.125000E-02  1.125000E-02
 9.854000E-02  1.125000E-02  1.125000E-02
 1.061200E-01  1.125000E-02  1.125000E-02
 1.137000E-01  1.125000E-02  1.125000E-02
 1.212800E-01  1.125000E-02  1.125000E-02
 1.288600E-01  1.125000E-02  1.125000E-02
 1.364400E-01  1.125000E-02  1.125000E-02
 1.440200E-01  1.125000E-02  1.125000E-02
 1.516000E-01  1.125000E-02  1.125000E-02
CELLS           20          180
8        0        1       22       21       42       43       64       63
8        1        2       23       22       43       44       65       64
8        2        3       24       23       44       45       66       65
8        3        4       25       24       45       46       67       66
8        4        5       26       25       46       47       68       67
8        5        6       27       26       47       48       69       68
8        6        7       28       27       48       49       70       69
8        7        8       29       28       49       50       71       70
8        8        9       30       29       50       51       72       71
8        9       10       31       30       51       52       73       72
8       10       11       32       31       52       53       74       73
8       11       12       33       32       53       54       75       74
8       12       13       34       33       54       55       76       75
8       13       14       35       34       55       56       77       76
8       14       15       36       35       56       57       78       77
8       15       16       37       36       57       58       79       78
8       16       17       38       37       58       59       80       79
8       17       18       39       38       59       60       81       80
8       18       19       40       39       60       61       82       81
8       19       20       41       40       61       62       83       82

CELL_TYPES           20
12
12
12
12
12
12
12
12
12
12
12
12
12
12
12
12
12
12
12
12

CELL_DATA       20
SCALARS Porosity             float 1
LOOKUP_TABLE default
 9.894521E-01  9.891623E-01  9.889231E-01  9.887167E-01  9.885342E-01  9.883701E-01  9.882206E-01  9.880828E-01  9.879548E-01  9.878348E-01
 9.877216E-01  9.876140E-01  9.875114E-01  9.874129E-01  9.873180E-01  9.872261E-01  9.871369E-01  9.870499E-01  9.869648E-01  9.868816E-01


SCALARS Permeability_X       float 1
LOOKUP_TABLE default
 1.000000E-12  1.000000E-12  1.000000E-12  1.000000E-12  1.000000E-12  1.000000E-12  1.000000E-12  1.000000E-12  1.000000E-12  1.000000E-12
 1.000000E-12  1.000000E-12  1.000000E-12  1.000000E-12  1.000000E-12  1.000000E-12  1.000000E-12  1.000000E-12  1.000000E-12  1.000000E-12


SCALARS Liquid_Pressure      float 1
LOOKUP_TABLE default
 7.500296E+06  7.500281E+06  7.500266E+06  7.500250E+06  7.500235E+06  7.500220E+06  7.500205E+06  7.500190E+06  7.500175E+06  7.500159E+06
 7.500144E+06  7.500129E+06  7.500114E+06  7.500099E+06  7.500083E+06  7.500068E+06  7.500053E+06  7.500038E+06  7.500023E+06  7.500008E+06


SCALARS Temperature          float 1
LOOKUP_TABLE default
 1.500000E+02  1.500000E+02  1.500000E+02  1.500000E+02  1.500000E+02  1.500000E+02  1.499999E+02  1.499999E+02  1.499999E+02  1.499999E+02
 1.499999E+02  1.499999E+02  1.499999E+02  1.499999E+02  1.499999E+02  1.499999E+02  1.499999E+02  1.499999E+02  1.500000E+02  1.500000E+02


SCALARS pH                   float 1
LOOKUP_TABLE default
 4.775246E+00  4.829187E+00  4.881436E+00  4.931041E+00  4.977688E+00  5.021382E+00  5.062283E+00  5.100617E+00  5.136622E+00  5.170531E+00
 5.202563E+00  5.232913E+00  5.261755E+00  5.289246E+00  5.315521E+00  5.340704E+00  5.364899E+00  5.388203E+00  5.410698E+00  5.432404E+00


SCALARS Total_H+             float 1
LOOKUP_TABLE default
-3.486325E-04 -3.756636E-04 -4.046552E-04 -4.351089E-04 -4.666938E-04 -4.991849E-04 -5.324283E-04 -5.663186E-04 -6.007849E-04 -6.357809E-04
-6.712783E-04 -7.072621E-04 -7.437274E-04 -7.806770E-04 -8.181198E-04 -8.560693E-04 -8.945433E-04 -9.335625E-04 -9.731500E-04 -1.013225E-03


SCALARS Total_SiO2(aq)       float 1
LOOKUP_TABLE default
 1.405450E-02  1.404945E-02  1.404421E-02  1.403875E-02  1.403307E-02  1.402717E-02  1.402104E-02  1.401470E-02  1.400813E-02  1.400135E-02
 1.399436E-02  1.398717E-02  1.397977E-02  1.397217E-02  1.396437E-02  1.395638E-02  1.394820E-02  1.393983E-02  1.393127E-02  1.392255E-02


SCALARS Total_Al+++          float 1
LOOKUP_TABLE default
 6.015348E-05  6.015348E-05  6.015348E-05  6.015348E-05  6.015348E-05  6.015348E-05  6.015348E-05  6.015348E-05  6.015348E-05  6.015348E-05
 6.015348E-05  6.015348E-05  6.015348E-05  6.015348E-05  6.015348E-05  6.015348E-05  6.015348E-05  6.015348E-05  6.015348E-05  6.015348E-05


SCALARS Total_Ca++           float 1
LOOKUP_TABLE default
 8.178332E-05  9.529886E-05  1.097947E-04  1.250215E-04  1.408139E-04  1.570595E-04  1.736812E-04  1.906264E-04  2.078595E-04  2.253575E-04
 2.431062E-04  2.610981E-04  2.793308E-04  2.978056E-04  3.165269E-04  3.355017E-04  3.547387E-04  3.742483E-04  3.940421E-04  4.140795E-04


SCALARS Total_Cl-            float 1
LOOKUP_TABLE default
 2.513233E-02  2.513233E-02  2.513233E-02  2.513233E-02  2.513233E-02  2.513233E-02  2.513233E-02  2.513233E-02  2.513233E-02  2.513233E-02
 2.513233E-02  2.513233E-02  2.513233E-02  2.513233E-02  2.513233E-02  2.513233E-02  2.513233E-02  2.513233E-02  2.513233E-02  2.513233E-02


SCALARS Total_CO2(aq)        float 1
LOOKUP_TABLE default
 1.357848E-02  1.359200E-02  1.360649E-02  1.362172E-02  1.363751E-02  1.365376E-02  1.367038E-02  1.368733E-02  1.370456E-02  1.372206E-02
 1.373981E-02  1.375780E-02  1.377603E-02  1.379451E-02  1.381323E-02  1.383220E-02  1.385144E-02  1.387095E-02  1.389074E-02  1.391078E-02


SCALARS Total_Na+            float 1
LOOKUP_TABLE default
 3.122900E-02  3.122900E-02  3.122900E-02  3.122900E-02  3.122900E-02  3.122900E-02  3.122900E-02  3.122900E-02  3.122900E-02  3.122900E-02
 3.122900E-02  3.122900E-02  3.122900E-02  3.122900E-02  3.122900E-02  3.122900E-02  3.122900E-02  3.122900E-02  3.122900E-02  3.122900E-02


SCALARS Total_K+             float 1
LOOKUP_TABLE default
 2.655416E-03  2.655416E-03  2.655416E-03  2.655416E-03  2.655416E-03  2.655416E-03  2.655416E-03  2.655416E-03  2.655416E-03  2.655416E-03
 2.655416E-03  2.655416E-03  2.655416E-03  2.655416E-03  2.655416E-03  2.655416E-03  2.655416E-03  2.655416E-03  2.655416E-03  2.655416E-03


SCALARS Total_Mg++           float 1
LOOKUP_TABLE default
 8.216757E-07  8.216757E-07  8.216757E-07  8.216757E-07  8.216757E-07  8.216757E-07  8.216757E-07  8.216757E-07  8.216757E-07  8.216757E-07
 8.216757E-07  8.216757E-07  8.216757E-07  8.216756E-07  8.216756E-07  8.216756E-07  8.216756E-07  8.216756E-07  8.216756E-07  8.216756E-07


SCALARS Total_Fe++           float 1
LOOKUP_TABLE default
 1.251593E-06  1.251593E-06  1.251593E-06  1.251593E-06  1.251593E-06  1.251593E-06  1.251593E-06  1.251593E-06  1.251593E-06  1.251593E-06
 1.251593E-06  1.251593E-06  1.251593E-06  1.251593E-06  1.251593E-06  1.251592E-06  1.251592E-06  1.251592E-06  1.251592E-06  1.251592E-06


SCALARS Total_Cu++           float 1
LOOKUP_TABLE default
 9.952832E-11  9.952832E-11  9.952832E-11  9.952832E-11  9.952832E-11  9.952832E-11  9.952832E-11  9.952832E-11  9.952832E-11  9.952832E-11
 9.952832E-11  9.952832E-11  9.952832E-11  9.952832E-11  9.952832E-11  9.952832E-11  9.952832E-11  9.952832E-11  9.952832E-11  9.952832E-11


SCALARS Total_SO4--          float 1
LOOKUP_TABLE default
 4.376188E-03  4.376188E-03  4.376188E-03  4.376188E-03  4.376188E-03  4.376188E-03  4.376188E-03  4.376188E-03  4.376188E-03  4.376188E-03
 4.376188E-03  4.376188E-03  4.376188E-03  4.376188E-03  4.376188E-03  4.376188E-03  4.376188E-03  4.376188E-03  4.376188E-03  4.376188E-03


SCALARS Total_Tracer         float 1
LOOKUP_TABLE default
 9.952832E-11  9.952832E-11  9.952832E-11  9.952832E-11  9.952832E-11  9.952832E-11  9.952832E-11  9.952832E-11  9.952832E-11  9.952832E-11
 9.952832E-11  9.952832E-11  9.952832E-11  9.952832E-11  9.952832E-11  9.952832E-11  9.952832E-11  9.952832E-11  9.952832E-11  9.952832E-11


SCALARS Active_Gas_CO2(g)    float 1
LOOKUP_TABLE default
 0.000000E+00  0.000000E+00  0.000000E+00  0.000000E+00  0.000000E+00  0.000000E+00  0.000000E+00  0.000000E+00  0.000000E+00  0.000000E+00
 0.000000E+00  0.000000E+00  0.000000E+00  0.000000E+00  0.000000E+00  0.000000E+00  0.000000E+00  0.000000E+00  0.000000E+00  0.000000E+00


SCALARS HCO3-                float 1
LOOKUP_TABLE default
 1.817242E-04  2.056011E-04  2.316893E-04  2.594845E-04  2.886238E-04  3.188447E-04  3.499584E-04  3.818300E-04  4.143639E-04  4.474936E-04
 4.811745E-04  5.153778E-04  5.500873E-04  5.852961E-04  6.210050E-04  6.572202E-04  6.939530E-04  7.312182E-04  7.690337E-04  8.073182E-04


SCALARS H2SiO4--             float 1
LOOKUP_TABLE default
 4.270086E-13  5.472694E-13  6.959512E-13  8.743130E-13  1.083510E-12  1.324613E-12  1.598659E-12  1.906691E-12  2.249793E-12  2.629116E-12
 3.045895E-12  3.501472E-12  3.997301E-12  4.534966E-12  5.116190E-12  5.742842E-12  6.416955E-12  7.140731E-12  7.916547E-12  8.744716E-12


SCALARS H3SiO4-              float 1
LOOKUP_TABLE default
 1.443030E-06  1.633297E-06  1.841438E-06  2.063477E-06  2.296554E-06  2.538601E-06  2.788132E-06  3.044087E-06  3.305717E-06  3.572505E-06
 3.844106E-06  4.120305E-06  4.400987E-06  4.686112E-06  4.975702E-06  5.269827E-06  5.568598E-06  5.872157E-06  6.180673E-06  6.493505E-06


SCALARS Calcite_VF           float 1
LOOKUP_TABLE default
 9.847981E-03  1.005473E-02  1.022342E-02  1.036807E-02  1.049545E-02  1.060974E-02  1.071380E-02  1.080971E-02  1.089906E-02  1.098308E-02
 1.106273E-02  1.113880E-02  1.121194E-02  1.128267E-02  1.135145E-02  1.141865E-02  1.148460E-02  1.154958E-02  1.161384E-02  1.167743E-02


SCALARS SiO2(am)_VF          float 1
LOOKUP_TABLE default
 6.955361E-04  7.779318E-04  8.479868E-04  9.094216E-04  9.643085E-04  1.013978E-03  1.059353E-03  1.101110E-03  1.139757E-03  1.175694E-03
 1.209234E-03  1.240634E-03  1.270103E-03  1.297815E-03  1.323917E-03  1.348533E-03  1.371769E-03  1.393718E-03  1.414458E-03  1.434011E-03


SCALARS Calcite_Rate         float 1
LOOKUP_TABLE default
-1.614575E-05 -1.798525E-05 -1.928440E-05 -2.025099E-05 -2.099695E-05 -2.159292E-05 -2.208616E-05 -2.250917E-05 -2.288486E-05 -2.322964E-05
-2.355548E-05 -2.387125E-05 -2.418366E-05 -2.449785E-05 -2.481782E-05 -2.514678E-05 -2.548728E-05 -2.584147E-05 -2.621112E-05 -2.659683E-05


SCALARS SiO2(am)_Rate        float 1
LOOKUP_TABLE default
 6.511856E-06  6.720691E-06  6.980347E-06  7.264051E-06  7.558254E-06  7.855568E-06  8.151882E-06  8.444934E-06  8.733545E-06  9.017179E-06
 9.295684E-06  9.569142E-06  9.837772E-06  1.010187E-05  1.036178E-05  1.061785E-05  1.087045E-05  1.111994E-05  1.136666E-05  1.161032E-05


SCALARS Calcite_Area         float 1
LOOKUP_TABLE default
 2.979385E-01  3.669569E-01  4.335558E-01  4.990879E-01  5.640163E-01  6.286194E-01  6.931387E-01  7.578142E-01  8.228917E-01  8.886231E-01
 9.552653E-01  1.023080E+00  1.092336E+00  1.163305E+00  1.236271E+00  1.311522E+00  1.389365E+00  1.470115E+00  1.554108E+00  1.641470E+00


SCALARS SiO2(am)_Area        float 1
LOOKUP_TABLE default
 1.129755E+05  1.088289E+05  1.057409E+05  1.033015E+05  1.013016E+05  9.961879E+04  9.817512E+04  9.691783E+04  9.580969E+04  9.482347E+04
 9.393871E+04  9.313966E+04  9.241399E+04  9.175185E+04  9.114527E+04  9.058772E+04  9.007380E+04  8.959897E+04  8.915942E+04  8.875288E+04


SCALARS Material_ID          int 1
LOOKUP_TABLE default
  1
  1
  1
  1
  1
  1
  1
  1
  1
  1
  1
  1
  1
  1
  1
  1
  1
  1
  1
  1


