# vtk DataFile Version 2.0
PFLOTRAN output
ASCII
DATASET UNSTRUCTURED_GRID
POINTS           84 float
 0.000000E+00  0.000000E+00  0.000000E+00
 7.580000E-03  0.000000E+00  0.000000E+00
 1.516000E-02  0.000000E+00  0.000000E+00
 2.274000E-02  0.000000E+00  0.000000E+00
 3.032000E-02  0.000000E+00  0.000000E+00
 3.790000E-02  0.000000E+00  0.000000E+00
 4.548000E-02  0.000000E+00  0.000000E+00
 5.306000E-02  0.000000E+00  0.000000E+00
 6.064000E-02  0.000000E+00  0.000000E+00
 6.822000E-02  0.000000E+00  0.000000E+00
 7.580000E-02  0.000000E+00  0.000000E+00
 8.338000E-02  0.000000E+00  0.000000E+00
 9.096000E-02  0.000000E+00  0.000000E+00
 9.854000E-02  0.000000E+00  0.000000E+00
 1.061200E-01  0.000000E+00  0.000000E+00
 1.137000E-01  0.000000E+00  0.000000E+00
 1.212800E-01  0.000000E+00  0.000000E+00
 1.288600E-01  0.000000E+00  0.000000E+00
 1.364400E-01  0.000000E+00  0.000000E+00
 1.440200E-01  0.000000E+00  0.000000E+00
 1.516000E-01  0.000000E+00  0.000000E+00
 0.000000E+00  1.125000E-02  0.000000E+00
 7.580000E-03  1.125000E-02  0.000000E+00
 1.516000E-02  1.125000E-02  0.000000E+00
 2.274000E-02  1.125000E-02  0.000000E+00
 3.032000E-02  1.125000E-02  0.000000E+00
 3.790000E-02  1.125000E-02  0.000000E+00
 4.548000E-02  1.125000E-02  0.000000E+00
 5.306000E-02  1.125000E-02  0.000000E+00
 6.064000E-02  1.125000E-02  0.000000E+00
 6.822000E-02  1.125000E-02  0.000000E+00
 7.580000E-02  1.125000E-02  0.000000E+00
 8.338000E-02  1.125000E-02  0.000000E+00
 9.096000E-02  1.125000E-02  0.000000E+00
 9.854000E-02  1.125000E-02  0.000000E+00
 1.061200E-01  1.125000E-02  0.000000E+00
 1.137000E-01  1.125000E-02  0.000000E+00
 1.212800E-01  1.125000E-02  0.000000E+00
 1.288600E-01  1.125000E-02  0.000000E+00
 1.364400E-01  1.125000E-02  0.000000E+00
 1.440200E-01  1.125000E-02  0.000000E+00
 1.516000E-01  1.125000E-02  0.000000E+00
 0.000000E+00  0.000000E+00  1.125000E-02
 7.580000E-03  0.000000E+00  1.125000E-02
 1.516000E-02  0.000000E+00  1.125000E-02
 2.274000E-02  0.000000E+00  1.125000E-02
 3.032000E-02  0.000000E+00  1.125000E-02
 3.790000E-02  0.000000E+00  1.125000E-02
 4.548000E-02  0.000000E+00  1.125000E-02
 5.306000E-02  0.000000E+00  1.125000E-02
 6.064000E-02  0.000000E+00  1.125000E-02
 6.822000E-02  0.000000E+00  1.125000E-02
 7.580000E-02  0.000000E+00  1.125000E-02
 8.338000E-02  0.000000E+00  1.125000E-02
 9.096000E-02  0.000000E+00  1.125000E-02
 9.854000E-02  0.000000E+00  1.125000E-02
 1.061200E-01  0.000000E+00  1.125000E-02
 1.137000E-01  0.000000E+00  1.125000E-02
 1.212800E-01  0.000000E+00  1.125000E-02
 1.288600E-01  0.000000E+00  1.125000E-02
 1.364400E-01  0.000000E+00  1.125000E-02
 1.440200E-01  0.000000E+00  1.125000E-02
 1.516000E-01  0.000000E+00  1.125000E-02
 0.000000E+00  1.125000E-02  1.125000E-02
 7.580000E-03  1.125000E-02  1.125000E-02
 1.516000E-02  1.125000E-02  1.125000E-02
 2.274000E-02  1.125000E-02  1.125000E-02
 3.032000E-02  1.125000E-02  1.125000E-02
 3.790000E-02  1.125000E-02  1.125000E-02
 4.548000E-02  1.125000E-02  1.125000E-02
 5.306000E-02  1.125000E-02  1.125000E-02
 6.064000E-02  1.125000E-02  1.125000E-02
 6.822000E-02  1.125000E-02  1.125000E-02
 7.580000E-02  1.125000E-02  1.125000E-02
 8.338000E-02  1.125000E-02  1.125000E-02
 9.096000E-02  1.125000E-02  1.125000E-02
 9.854000E-02  1.125000E-02  1.125000E-02
 1.061200E-01  1.125000E-02  1.125000E-02
 1.137000E-01  1.125000E-02  1.125000E-02
 1.212800E-01  1.125000E-02  1.125000E-02
 1.288600E-01  1.125000E-02  1.125000E-02
 1.364400E-01  1.125000E-02  1.125000E-02
 1.440200E-01  1.125000E-02  1.125000E-02
 1.516000E-01  1.125000E-02  1.125000E-02
CELLS           20          180
8        0        1       22       21       42       43       64       63
8        1        2       23       22       43       44       65       64
8        2        3       24       23       44       45       66       65
8        3        4       25       24       45       46       67       66
8        4        5       26       25       46       47       68       67
8        5        6       27       26       47       48       69       68
8        6        7       28       27       48       49       70       69
8        7        8       29       28       49       50       71       70
8        8        9       30       29       50       51       72       71
8        9       10       31       30       51       52       73       72
8       10       11       32       31       52       53       74       73
8       11       12       33       32       53       54       75       74
8       12       13       34       33       54       55       76       75
8       13       14       35       34       55       56       77       76
8       14       15       36       35       56       57       78       77
8       15       16       37       36       57       58       79       78
8       16       17       38       37       58       59       80       79
8       17       18       39       38       59       60       81       80
8       18       19       40       39       60       61       82       81
8       19       20       41       40       61       62       83       82

CELL_TYPES           20
12
12
12
12
12
12
12
12
12
12
12
12
12
12
12
12
12
12
12
12

CELL_DATA       20
SCALARS Porosity             float 1
LOOKUP_TABLE default
 9.886696E-01  9.882799E-01  9.879863E-01  9.877492E-01  9.875493E-01  9.873753E-01  9.872202E-01  9.870791E-01  9.869487E-01  9.868265E-01
 9.867107E-01  9.866000E-01  9.864934E-01  9.863898E-01  9.862887E-01  9.861896E-01  9.860921E-01  9.859957E-01  9.859003E-01  9.858058E-01


SCALARS Permeability_X       float 1
LOOKUP_TABLE default
 1.000000E-12  1.000000E-12  1.000000E-12  1.000000E-12  1.000000E-12  1.000000E-12  1.000000E-12  1.000000E-12  1.000000E-12  1.000000E-12
 1.000000E-12  1.000000E-12  1.000000E-12  1.000000E-12  1.000000E-12  1.000000E-12  1.000000E-12  1.000000E-12  1.000000E-12  1.000000E-12


SCALARS Liquid_Pressure      float 1
LOOKUP_TABLE default
 7.500296E+06  7.500281E+06  7.500266E+06  7.500250E+06  7.500235E+06  7.500220E+06  7.500205E+06  7.500190E+06  7.500175E+06  7.500159E+06
 7.500144E+06  7.500129E+06  7.500114E+06  7.500099E+06  7.500083E+06  7.500068E+06  7.500053E+06  7.500038E+06  7.500023E+06  7.500008E+06


SCALARS Temperature          float 1
LOOKUP_TABLE default
 1.500000E+02  1.500000E+02  1.499999E+02  1.499999E+02  1.499999E+02  1.499999E+02  1.499998E+02  1.499998E+02  1.499998E+02  1.499998E+02
 1.499998E+02  1.499998E+02  1.499998E+02  1.499998E+02  1.499998E+02  1.499998E+02  1.499998E+02  1.499998E+02  1.499999E+02  1.500000E+02


SCALARS pH                   float 1
LOOKUP_TABLE default
 4.840408E+00  4.945807E+00  5.036117E+00  5.113651E+00  5.181012E+00  5.240340E+00  5.293273E+00  5.341050E+00  5.384614E+00  5.424689E+00
 5.461837E+00  5.496504E+00  5.529043E+00  5.559740E+00  5.588825E+00  5.616487E+00  5.642880E+00  5.668128E+00  5.692335E+00  5.715521E+00


SCALARS Total_H+             float 1
LOOKUP_TABLE default
-3.816441E-04 -4.447831E-04 -5.108343E-04 -5.784945E-04 -6.471334E-04 -7.164451E-04 -7.862913E-04 -8.566245E-04 -9.274479E-04 -9.987922E-04
-1.070703E-03 -1.143231E-03 -1.216430E-03 -1.290345E-03 -1.365020E-03 -1.440484E-03 -1.516754E-03 -1.593830E-03 -1.671693E-03 -1.750094E-03


SCALARS Total_SiO2(aq)       float 1
LOOKUP_TABLE default
 1.405329E-02  1.404661E-02  1.403936E-02  1.403155E-02  1.402322E-02  1.401438E-02  1.400508E-02  1.399532E-02  1.398513E-02  1.397452E-02
 1.396352E-02  1.395212E-02  1.394035E-02  1.392822E-02  1.391572E-02  1.390287E-02  1.388968E-02  1.387616E-02  1.386230E-02  1.384816E-02


SCALARS Total_Al+++          float 1
LOOKUP_TABLE default
 6.015348E-05  6.015348E-05  6.015348E-05  6.015348E-05  6.015348E-05  6.015348E-05  6.015348E-05  6.015348E-05  6.015348E-05  6.015348E-05
 6.015348E-05  6.015349E-05  6.015349E-05  6.015349E-05  6.015349E-05  6.015349E-05  6.015349E-05  6.015349E-05  6.015349E-05  6.015349E-05


SCALARS Total_Ca++           float 1
LOOKUP_TABLE default
 9.828913E-05  1.298586E-04  1.628842E-04  1.967143E-04  2.310338E-04  2.656896E-04  3.006127E-04  3.357793E-04  3.711910E-04  4.068632E-04
 4.428185E-04  4.790827E-04  5.156818E-04  5.526398E-04  5.899771E-04  6.277089E-04  6.658439E-04  7.043822E-04  7.433137E-04  7.825143E-04


SCALARS Total_Cl-            float 1
LOOKUP_TABLE default
 2.513233E-02  2.513233E-02  2.513233E-02  2.513233E-02  2.513233E-02  2.513233E-02  2.513233E-02  2.513233E-02  2.513233E-02  2.513233E-02
 2.513233E-02  2.513233E-02  2.513233E-02  2.513233E-02  2.513233E-02  2.513233E-02  2.513233E-02  2.513233E-02  2.513233E-02  2.513233E-02


SCALARS Total_CO2(aq)        float 1
LOOKUP_TABLE default
 1.359499E-02  1.362656E-02  1.365958E-02  1.369341E-02  1.372773E-02  1.376239E-02  1.379731E-02  1.383248E-02  1.386789E-02  1.390356E-02
 1.393952E-02  1.397578E-02  1.401238E-02  1.404934E-02  1.408668E-02  1.412441E-02  1.416254E-02  1.420108E-02  1.424001E-02  1.427921E-02


SCALARS Total_Na+            float 1
LOOKUP_TABLE default
 3.122900E-02  3.122900E-02  3.122900E-02  3.122900E-02  3.122900E-02  3.122900E-02  3.122900E-02  3.122900E-02  3.122900E-02  3.122900E-02
 3.122900E-02  3.122900E-02  3.122900E-02  3.122900E-02  3.122900E-02  3.122900E-02  3.122900E-02  3.122900E-02  3.122900E-02  3.122900E-02


SCALARS Total_K+             float 1
LOOKUP_TABLE default
 2.655416E-03  2.655416E-03  2.655416E-03  2.655416E-03  2.655416E-03  2.655416E-03  2.655416E-03  2.655416E-03  2.655416E-03  2.655416E-03
 2.655416E-03  2.655416E-03  2.655416E-03  2.655416E-03  2.655416E-03  2.655416E-03  2.655416E-03  2.655415E-03  2.655415E-03  2.655415E-03


SCALARS Total_Mg++           float 1
LOOKUP_TABLE default
 8.216757E-07  8.216757E-07  8.216757E-07  8.216757E-07  8.216757E-07  8.216757E-07  8.216757E-07  8.216757E-07  8.216757E-07  8.216757E-07
 8.216757E-07  8.216757E-07  8.216757E-07  8.216756E-07  8.216756E-07  8.216756E-07  8.216756E-07  8.216756E-07  8.216756E-07  8.216756E-07


SCALARS Total_Fe++           float 1
LOOKUP_TABLE default
 1.251593E-06  1.251593E-06  1.251593E-06  1.251593E-06  1.251593E-06  1.251593E-06  1.251593E-06  1.251593E-06  1.251593E-06  1.251593E-06
 1.251593E-06  1.251593E-06  1.251593E-06  1.251593E-06  1.251592E-06  1.251592E-06  1.251592E-06  1.251592E-06  1.251592E-06  1.251592E-06


SCALARS Total_Cu++           float 1
LOOKUP_TABLE default
 9.952832E-11  9.952832E-11  9.952832E-11  9.952832E-11  9.952832E-11  9.952832E-11  9.952832E-11  9.952832E-11  9.952832E-11  9.952832E-11
 9.952832E-11  9.952832E-11  9.952832E-11  9.952832E-11  9.952832E-11  9.952832E-11  9.952832E-11  9.952832E-11  9.952832E-11  9.952831E-11


SCALARS Total_SO4--          float 1
LOOKUP_TABLE default
 4.376188E-03  4.376188E-03  4.376188E-03  4.376188E-03  4.376188E-03  4.376188E-03  4.376188E-03  4.376188E-03  4.376188E-03  4.376188E-03
 4.376188E-03  4.376188E-03  4.376188E-03  4.376188E-03  4.376188E-03  4.376188E-03  4.376188E-03  4.376188E-03  4.376188E-03  4.376188E-03


SCALARS Total_Tracer         float 1
LOOKUP_TABLE default
 9.952832E-11  9.952832E-11  9.952832E-11  9.952832E-11  9.952832E-11  9.952832E-11  9.952832E-11  9.952832E-11  9.952832E-11  9.952832E-11
 9.952832E-11  9.952832E-11  9.952832E-11  9.952832E-11  9.952832E-11  9.952832E-11  9.952832E-11  9.952832E-11  9.952832E-11  9.952831E-11


SCALARS Active_Gas_CO2(g)    float 1
LOOKUP_TABLE default
 0.000000E+00  0.000000E+00  0.000000E+00  0.000000E+00  0.000000E+00  0.000000E+00  0.000000E+00  0.000000E+00  0.000000E+00  0.000000E+00
 0.000000E+00  0.000000E+00  0.000000E+00  0.000000E+00  0.000000E+00  0.000000E+00  0.000000E+00  0.000000E+00  0.000000E+00  0.000000E+00


SCALARS HCO3-                float 1
LOOKUP_TABLE default
 2.109465E-04  2.683789E-04  3.297258E-04  3.933069E-04  4.582517E-04  5.241062E-04  5.906377E-04  6.577361E-04  7.253603E-04  7.935087E-04
 8.622018E-04  9.314708E-04  1.001351E-03  1.071876E-03  1.143075E-03  1.214967E-03  1.287560E-03  1.360846E-03  1.434799E-03  1.509177E-03


SCALARS H2SiO4--             float 1
LOOKUP_TABLE default
 5.764633E-13  9.363926E-13  1.418917E-12  2.027183E-12  2.763570E-12  3.630509E-12  4.630874E-12  5.768136E-12  7.046433E-12  8.470570E-12
 1.004600E-11  1.177876E-11  1.367542E-11  1.574298E-11  1.798874E-11  2.042017E-11  2.304466E-11  2.586931E-11  2.890056E-11  3.213516E-11


SCALARS H3SiO4-              float 1
LOOKUP_TABLE default
 1.676511E-06  2.136047E-06  2.628510E-06  3.140628E-06  3.665510E-06  4.199556E-06  4.740928E-06  5.288763E-06  5.842761E-06  6.402942E-06
 6.969516E-06  7.542786E-06  8.123096E-06  8.710787E-06  9.306160E-06  9.909448E-06  1.052079E-05  1.114019E-05  1.176750E-05  1.240072E-05


SCALARS Calcite_VF           float 1
LOOKUP_TABLE default
 1.085541E-02  1.117468E-02  1.141246E-02  1.160291E-02  1.176270E-02  1.190147E-02  1.202532E-02  1.213831E-02  1.224331E-02  1.234236E-02
 1.243700E-02  1.252838E-02  1.261740E-02  1.270475E-02  1.279099E-02  1.287655E-02  1.296176E-02  1.304690E-02  1.313216E-02  1.321747E-02


SCALARS SiO2(am)_VF          float 1
LOOKUP_TABLE default
 4.623500E-04  5.314574E-04  5.868018E-04  6.332453E-04  6.733201E-04  7.085430E-04  7.399023E-04  7.680805E-04  7.935696E-04  8.167369E-04
 8.378638E-04  8.571709E-04  8.748345E-04  8.909978E-04  9.057789E-04  9.192760E-04  9.315724E-04  9.427393E-04  9.528379E-04  9.619021E-04


SCALARS Calcite_Rate         float 1
LOOKUP_TABLE default
-3.815969E-05 -4.198451E-05 -4.389627E-05 -4.493965E-05 -4.556342E-05 -4.598375E-05 -4.631236E-05 -4.660970E-05 -4.690932E-05 -4.722972E-05
-4.758052E-05 -4.796576E-05 -4.838572E-05 -4.883790E-05 -4.931754E-05 -4.981782E-05 -5.032991E-05 -5.084289E-05 -5.134365E-05 -5.181614E-05


SCALARS SiO2(am)_Rate        float 1
LOOKUP_TABLE default
 8.127379E-06  8.884439E-06  9.650212E-06  1.038625E-05  1.108403E-05  1.174425E-05  1.237036E-05  1.296640E-05  1.353624E-05  1.408334E-05
 1.461068E-05  1.512085E-05  1.561600E-05  1.609798E-05  1.656830E-05  1.702820E-05  1.747867E-05  1.792045E-05  1.835406E-05  1.877868E-05


SCALARS Calcite_Area         float 1
LOOKUP_TABLE default
 7.949946E-01  1.063339E+00  1.313004E+00  1.549494E+00  1.776608E+00  1.997609E+00  2.215373E+00  2.432454E+00  2.651152E+00  2.873567E+00
 3.101658E+00  3.337281E+00  3.582224E+00  3.838242E+00  4.107067E+00  4.390428E+00  4.690053E+00  5.007666E+00  5.344973E+00  5.702752E+00


SCALARS SiO2(am)_Area        float 1
LOOKUP_TABLE default
 1.295611E+05  1.236715E+05  1.196509E+05  1.166507E+05  1.142896E+05  1.123648E+05  1.107561E+05  1.093866E+05  1.082047E+05  1.071739E+05
 1.062676E+05  1.054659E+05  1.047535E+05  1.041186E+05  1.035516E+05  1.030448E+05  1.025920E+05  1.021879E+05  1.018284E+05  1.015103E+05


SCALARS Material_ID          int 1
LOOKUP_TABLE default
  1
  1
  1
  1
  1
  1
  1
  1
  1
  1
  1
  1
  1
  1
  1
  1
  1
  1
  1
  1


