# vtk DataFile Version 2.0
PFLOTRAN output
ASCII
DATASET UNSTRUCTURED_GRID
POINTS           84 float
 0.000000E+00  0.000000E+00  0.000000E+00
 7.580000E-03  0.000000E+00  0.000000E+00
 1.516000E-02  0.000000E+00  0.000000E+00
 2.274000E-02  0.000000E+00  0.000000E+00
 3.032000E-02  0.000000E+00  0.000000E+00
 3.790000E-02  0.000000E+00  0.000000E+00
 4.548000E-02  0.000000E+00  0.000000E+00
 5.306000E-02  0.000000E+00  0.000000E+00
 6.064000E-02  0.000000E+00  0.000000E+00
 6.822000E-02  0.000000E+00  0.000000E+00
 7.580000E-02  0.000000E+00  0.000000E+00
 8.338000E-02  0.000000E+00  0.000000E+00
 9.096000E-02  0.000000E+00  0.000000E+00
 9.854000E-02  0.000000E+00  0.000000E+00
 1.061200E-01  0.000000E+00  0.000000E+00
 1.137000E-01  0.000000E+00  0.000000E+00
 1.212800E-01  0.000000E+00  0.000000E+00
 1.288600E-01  0.000000E+00  0.000000E+00
 1.364400E-01  0.000000E+00  0.000000E+00
 1.440200E-01  0.000000E+00  0.000000E+00
 1.516000E-01  0.000000E+00  0.000000E+00
 0.000000E+00  1.125000E-02  0.000000E+00
 7.580000E-03  1.125000E-02  0.000000E+00
 1.516000E-02  1.125000E-02  0.000000E+00
 2.274000E-02  1.125000E-02  0.000000E+00
 3.032000E-02  1.125000E-02  0.000000E+00
 3.790000E-02  1.125000E-02  0.000000E+00
 4.548000E-02  1.125000E-02  0.000000E+00
 5.306000E-02  1.125000E-02  0.000000E+00
 6.064000E-02  1.125000E-02  0.000000E+00
 6.822000E-02  1.125000E-02  0.000000E+00
 7.580000E-02  1.125000E-02  0.000000E+00
 8.338000E-02  1.125000E-02  0.000000E+00
 9.096000E-02  1.125000E-02  0.000000E+00
 9.854000E-02  1.125000E-02  0.000000E+00
 1.061200E-01  1.125000E-02  0.000000E+00
 1.137000E-01  1.125000E-02  0.000000E+00
 1.212800E-01  1.125000E-02  0.000000E+00
 1.288600E-01  1.125000E-02  0.000000E+00
 1.364400E-01  1.125000E-02  0.000000E+00
 1.440200E-01  1.125000E-02  0.000000E+00
 1.516000E-01  1.125000E-02  0.000000E+00
 0.000000E+00  0.000000E+00  1.125000E-02
 7.580000E-03  0.000000E+00  1.125000E-02
 1.516000E-02  0.000000E+00  1.125000E-02
 2.274000E-02  0.000000E+00  1.125000E-02
 3.032000E-02  0.000000E+00  1.125000E-02
 3.790000E-02  0.000000E+00  1.125000E-02
 4.548000E-02  0.000000E+00  1.125000E-02
 5.306000E-02  0.000000E+00  1.125000E-02
 6.064000E-02  0.000000E+00  1.125000E-02
 6.822000E-02  0.000000E+00  1.125000E-02
 7.580000E-02  0.000000E+00  1.125000E-02
 8.338000E-02  0.000000E+00  1.125000E-02
 9.096000E-02  0.000000E+00  1.125000E-02
 9.854000E-02  0.000000E+00  1.125000E-02
 1.061200E-01  0.000000E+00  1.125000E-02
 1.137000E-01  0.000000E+00  1.125000E-02
 1.212800E-01  0.000000E+00  1.125000E-02
 1.288600E-01  0.000000E+00  1.125000E-02
 1.364400E-01  0.000000E+00  1.125000E-02
 1.440200E-01  0.000000E+00  1.125000E-02
 1.516000E-01  0.000000E+00  1.125000E-02
 0.000000E+00  1.125000E-02  1.125000E-02
 7.580000E-03  1.125000E-02  1.125000E-02
 1.516000E-02  1.125000E-02  1.125000E-02
 2.274000E-02  1.125000E-02  1.125000E-02
 3.032000E-02  1.125000E-02  1.125000E-02
 3.790000E-02  1.125000E-02  1.125000E-02
 4.548000E-02  1.125000E-02  1.125000E-02
 5.306000E-02  1.125000E-02  1.125000E-02
 6.064000E-02  1.125000E-02  1.125000E-02
 6.822000E-02  1.125000E-02  1.125000E-02
 7.580000E-02  1.125000E-02  1.125000E-02
 8.338000E-02  1.125000E-02  1.125000E-02
 9.096000E-02  1.125000E-02  1.125000E-02
 9.854000E-02  1.125000E-02  1.125000E-02
 1.061200E-01  1.125000E-02  1.125000E-02
 1.137000E-01  1.125000E-02  1.125000E-02
 1.212800E-01  1.125000E-02  1.125000E-02
 1.288600E-01  1.125000E-02  1.125000E-02
 1.364400E-01  1.125000E-02  1.125000E-02
 1.440200E-01  1.125000E-02  1.125000E-02
 1.516000E-01  1.125000E-02  1.125000E-02
CELLS           20          180
8        0        1       22       21       42       43       64       63
8        1        2       23       22       43       44       65       64
8        2        3       24       23       44       45       66       65
8        3        4       25       24       45       46       67       66
8        4        5       26       25       46       47       68       67
8        5        6       27       26       47       48       69       68
8        6        7       28       27       48       49       70       69
8        7        8       29       28       49       50       71       70
8        8        9       30       29       50       51       72       71
8        9       10       31       30       51       52       73       72
8       10       11       32       31       52       53       74       73
8       11       12       33       32       53       54       75       74
8       12       13       34       33       54       55       76       75
8       13       14       35       34       55       56       77       76
8       14       15       36       35       56       57       78       77
8       15       16       37       36       57       58       79       78
8       16       17       38       37       58       59       80       79
8       17       18       39       38       59       60       81       80
8       18       19       40       39       60       61       82       81
8       19       20       41       40       61       62       83       82

CELL_TYPES           20
12
12
12
12
12
12
12
12
12
12
12
12
12
12
12
12
12
12
12
12

CELL_DATA       20
SCALARS Porosity             float 1
LOOKUP_TABLE default
 9.881048E-01  9.876710E-01  9.873656E-01  9.871290E-01  9.869342E-01  9.867668E-01  9.866183E-01  9.864834E-01  9.863583E-01  9.862407E-01
 9.861287E-01  9.860210E-01  9.859169E-01  9.858156E-01  9.857168E-01  9.856201E-01  9.855255E-01  9.854330E-01  9.853426E-01  9.852548E-01


SCALARS Permeability_X       float 1
LOOKUP_TABLE default
 1.000000E-12  1.000000E-12  1.000000E-12  1.000000E-12  1.000000E-12  1.000000E-12  1.000000E-12  1.000000E-12  1.000000E-12  1.000000E-12
 1.000000E-12  1.000000E-12  1.000000E-12  1.000000E-12  1.000000E-12  1.000000E-12  1.000000E-12  1.000000E-12  1.000000E-12  1.000000E-12


SCALARS Liquid_Pressure      float 1
LOOKUP_TABLE default
 7.500296E+06  7.500281E+06  7.500266E+06  7.500250E+06  7.500235E+06  7.500220E+06  7.500205E+06  7.500190E+06  7.500175E+06  7.500159E+06
 7.500144E+06  7.500129E+06  7.500114E+06  7.500099E+06  7.500083E+06  7.500068E+06  7.500053E+06  7.500038E+06  7.500023E+06  7.500008E+06


SCALARS Temperature          float 1
LOOKUP_TABLE default
 1.500000E+02  1.499999E+02  1.499999E+02  1.499999E+02  1.499998E+02  1.499998E+02  1.499998E+02  1.499997E+02  1.499997E+02  1.499997E+02
 1.499997E+02  1.499997E+02  1.499996E+02  1.499996E+02  1.499997E+02  1.499997E+02  1.499997E+02  1.499998E+02  1.499998E+02  1.499999E+02


SCALARS pH                   float 1
LOOKUP_TABLE default
 4.901204E+00  5.040949E+00  5.150418E+00  5.239130E+00  5.313314E+00  5.376951E+00  5.432662E+00  5.482234E+00  5.526924E+00  5.567643E+00
 5.605066E+00  5.639700E+00  5.671933E+00  5.702061E+00  5.730315E+00  5.756868E+00  5.781857E+00  5.805381E+00  5.827517E+00  5.848267E+00


SCALARS Total_H+             float 1
LOOKUP_TABLE default
-4.164300E-04 -5.147344E-04 -6.147241E-04 -7.149455E-04 -8.149130E-04 -9.145076E-04 -1.013755E-03 -1.112731E-03 -1.211522E-03 -1.310201E-03
-1.408813E-03 -1.507371E-03 -1.605846E-03 -1.704163E-03 -1.802200E-03 -1.899779E-03 -1.996669E-03 -2.092582E-03 -2.187177E-03 -2.279839E-03


SCALARS Total_SiO2(aq)       float 1
LOOKUP_TABLE default
 1.405227E-02  1.404414E-02  1.403510E-02  1.402522E-02  1.401457E-02  1.400323E-02  1.399123E-02  1.397861E-02  1.396542E-02  1.395167E-02
 1.393740E-02  1.392262E-02  1.390736E-02  1.389163E-02  1.387546E-02  1.385885E-02  1.384183E-02  1.382441E-02  1.380661E-02  1.378850E-02


SCALARS Total_Al+++          float 1
LOOKUP_TABLE default
 6.015348E-05  6.015348E-05  6.015348E-05  6.015348E-05  6.015348E-05  6.015348E-05  6.015348E-05  6.015349E-05  6.015349E-05  6.015349E-05
 6.015349E-05  6.015349E-05  6.015349E-05  6.015349E-05  6.015349E-05  6.015350E-05  6.015350E-05  6.015350E-05  6.015350E-05  6.015350E-05


SCALARS Total_Ca++           float 1
LOOKUP_TABLE default
 1.156821E-04  1.648343E-04  2.148291E-04  2.649398E-04  3.149236E-04  3.647209E-04  4.143443E-04  4.638325E-04  5.132282E-04  5.625676E-04
 6.118737E-04  6.611526E-04  7.103899E-04  7.595487E-04  8.085670E-04  8.573566E-04  9.058014E-04  9.537579E-04  1.001056E-03  1.047387E-03


SCALARS Total_Cl-            float 1
LOOKUP_TABLE default
 2.513233E-02  2.513233E-02  2.513233E-02  2.513233E-02  2.513233E-02  2.513233E-02  2.513233E-02  2.513233E-02  2.513233E-02  2.513233E-02
 2.513233E-02  2.513233E-02  2.513233E-02  2.513233E-02  2.513233E-02  2.513233E-02  2.513233E-02  2.513233E-02  2.513233E-02  2.513233E-02


SCALARS Total_CO2(aq)        float 1
LOOKUP_TABLE default
 1.361238E-02  1.366153E-02  1.371153E-02  1.376164E-02  1.381162E-02  1.386142E-02  1.391104E-02  1.396053E-02  1.400993E-02  1.405927E-02
 1.410857E-02  1.415785E-02  1.420709E-02  1.425625E-02  1.430527E-02  1.435406E-02  1.440250E-02  1.445046E-02  1.449775E-02  1.454409E-02


SCALARS Total_Na+            float 1
LOOKUP_TABLE default
 3.122900E-02  3.122900E-02  3.122900E-02  3.122900E-02  3.122900E-02  3.122900E-02  3.122900E-02  3.122900E-02  3.122900E-02  3.122900E-02
 3.122900E-02  3.122900E-02  3.122900E-02  3.122900E-02  3.122900E-02  3.122900E-02  3.122900E-02  3.122900E-02  3.122900E-02  3.122900E-02


SCALARS Total_K+             float 1
LOOKUP_TABLE default
 2.655416E-03  2.655416E-03  2.655416E-03  2.655416E-03  2.655416E-03  2.655416E-03  2.655416E-03  2.655416E-03  2.655416E-03  2.655416E-03
 2.655416E-03  2.655416E-03  2.655416E-03  2.655416E-03  2.655416E-03  2.655416E-03  2.655415E-03  2.655415E-03  2.655415E-03  2.655415E-03


SCALARS Total_Mg++           float 1
LOOKUP_TABLE default
 8.216757E-07  8.216757E-07  8.216757E-07  8.216757E-07  8.216757E-07  8.216757E-07  8.216757E-07  8.216757E-07  8.216757E-07  8.216757E-07
 8.216757E-07  8.216757E-07  8.216757E-07  8.216756E-07  8.216756E-07  8.216756E-07  8.216756E-07  8.216756E-07  8.216756E-07  8.216756E-07


SCALARS Total_Fe++           float 1
LOOKUP_TABLE default
 1.251593E-06  1.251593E-06  1.251593E-06  1.251593E-06  1.251593E-06  1.251593E-06  1.251593E-06  1.251593E-06  1.251593E-06  1.251593E-06
 1.251593E-06  1.251593E-06  1.251593E-06  1.251592E-06  1.251592E-06  1.251592E-06  1.251592E-06  1.251592E-06  1.251592E-06  1.251592E-06


SCALARS Total_Cu++           float 1
LOOKUP_TABLE default
 9.952832E-11  9.952832E-11  9.952832E-11  9.952832E-11  9.952832E-11  9.952832E-11  9.952832E-11  9.952832E-11  9.952832E-11  9.952832E-11
 9.952832E-11  9.952832E-11  9.952832E-11  9.952832E-11  9.952832E-11  9.952832E-11  9.952832E-11  9.952832E-11  9.952831E-11  9.952831E-11


SCALARS Total_SO4--          float 1
LOOKUP_TABLE default
 4.376188E-03  4.376188E-03  4.376188E-03  4.376188E-03  4.376188E-03  4.376188E-03  4.376188E-03  4.376188E-03  4.376188E-03  4.376188E-03
 4.376188E-03  4.376188E-03  4.376188E-03  4.376188E-03  4.376188E-03  4.376188E-03  4.376188E-03  4.376188E-03  4.376188E-03  4.376188E-03


SCALARS Total_Tracer         float 1
LOOKUP_TABLE default
 9.952832E-11  9.952832E-11  9.952832E-11  9.952832E-11  9.952832E-11  9.952832E-11  9.952832E-11  9.952832E-11  9.952832E-11  9.952832E-11
 9.952832E-11  9.952832E-11  9.952832E-11  9.952832E-11  9.952832E-11  9.952832E-11  9.952832E-11  9.952832E-11  9.952831E-11  9.952831E-11


SCALARS Active_Gas_CO2(g)    float 1
LOOKUP_TABLE default
 0.000000E+00  0.000000E+00  0.000000E+00  0.000000E+00  0.000000E+00  0.000000E+00  0.000000E+00  0.000000E+00  0.000000E+00  0.000000E+00
 0.000000E+00  0.000000E+00  0.000000E+00  0.000000E+00  0.000000E+00  0.000000E+00  0.000000E+00  0.000000E+00  0.000000E+00  0.000000E+00


SCALARS HCO3-                float 1
LOOKUP_TABLE default
 2.423939E-04  3.333735E-04  4.275427E-04  5.226763E-04  6.179290E-04  7.129954E-04  8.077934E-04  9.023328E-04  9.966537E-04  1.090796E-03
 1.184783E-03  1.278611E-03  1.372238E-03  1.465585E-03  1.558526E-03  1.650889E-03  1.742450E-03  1.832938E-03  1.922030E-03  2.009152E-03


SCALARS H2SiO4--             float 1
LOOKUP_TABLE default
 7.627536E-13  1.451366E-12  2.402143E-12  3.613142E-12  5.082680E-12  6.810628E-12  8.798520E-12  1.104929E-11  1.356684E-11  1.635556E-11
 1.941976E-11  2.276302E-11  2.638750E-11  3.029309E-11  3.447657E-11  3.893066E-11  4.364305E-11  4.859551E-11  5.376312E-11  5.910032E-11


SCALARS H3SiO4-              float 1
LOOKUP_TABLE default
 1.928312E-06  2.658832E-06  3.419020E-06  4.191119E-06  4.968286E-06  5.747975E-06  6.529450E-06  7.312726E-06  8.098084E-06  8.885816E-06
 9.676079E-06  1.046880E-05  1.126360E-05  1.205975E-05  1.285611E-05  1.365108E-05  1.444262E-05  1.522816E-05  1.600467E-05  1.676681E-05


SCALARS Calcite_VF           float 1
LOOKUP_TABLE default
 1.150406E-02  1.187820E-02  1.213842E-02  1.233849E-02  1.250251E-02  1.264336E-02  1.276861E-02  1.288309E-02  1.298996E-02  1.309140E-02
 1.318894E-02  1.328367E-02  1.337633E-02  1.346746E-02  1.355739E-02  1.364629E-02  1.373424E-02  1.382117E-02  1.390694E-02  1.399113E-02


SCALARS SiO2(am)_VF          float 1
LOOKUP_TABLE default
 3.696300E-04  4.281150E-04  4.732261E-04  5.101190E-04  5.413131E-04  5.682460E-04  5.918211E-04  6.126449E-04  6.311460E-04  6.476390E-04
 6.623629E-04  6.755038E-04  6.872105E-04  6.976044E-04  7.067873E-04  7.148456E-04  7.218549E-04  7.278825E-04  7.329894E-04  7.372249E-04


SCALARS Calcite_Rate         float 1
LOOKUP_TABLE default
-6.134838E-05 -6.533486E-05 -6.639977E-05 -6.649857E-05 -6.627646E-05 -6.597728E-05 -6.569709E-05 -6.547019E-05 -6.530227E-05 -6.518444E-05
-6.509951E-05 -6.502484E-05 -6.493379E-05 -6.479648E-05 -6.458026E-05 -6.425037E-05 -6.377071E-05 -6.310502E-05 -6.221843E-05 -6.108328E-05


SCALARS SiO2(am)_Rate        float 1
LOOKUP_TABLE default
 9.484664E-06  1.081142E-05  1.202985E-05  1.313451E-05  1.414221E-05  1.507022E-05  1.593278E-05  1.674107E-05  1.750377E-05  1.822757E-05
 1.891763E-05  1.957786E-05  2.021117E-05  2.081962E-05  2.140455E-05  2.196669E-05  2.250622E-05  2.302282E-05  2.351578E-05  2.398293E-05


SCALARS Calcite_Area         float 1
LOOKUP_TABLE default
 1.430716E+00  1.971689E+00  2.448515E+00  2.882454E+00  3.288231E+00  3.676796E+00  4.056553E+00  4.434141E+00  4.814954E+00  5.203469E+00
 5.603478E+00  6.018211E+00  6.450420E+00  6.902402E+00  7.375984E+00  7.872481E+00  8.392624E+00  8.936474E+00  9.503321E+00  1.009024E+01


SCALARS SiO2(am)_Area        float 1
LOOKUP_TABLE default
 1.397156E+05  1.330337E+05  1.286669E+05  1.254914E+05  1.230379E+05  1.210675E+05  1.194432E+05  1.180793E+05  1.169191E+05  1.159230E+05
 1.150627E+05  1.143167E+05  1.136690E+05  1.131068E+05  1.126201E+05  1.122006E+05  1.118415E+05  1.115372E+05  1.112829E+05  1.110746E+05


SCALARS Material_ID          int 1
LOOKUP_TABLE default
  1
  1
  1
  1
  1
  1
  1
  1
  1
  1
  1
  1
  1
  1
  1
  1
  1
  1
  1
  1


