# vtk DataFile Version 2.0
PFLOTRAN output
ASCII
DATASET UNSTRUCTURED_GRID
POINTS           84 float
 0.000000E+00  0.000000E+00  0.000000E+00
 7.580000E-03  0.000000E+00  0.000000E+00
 1.516000E-02  0.000000E+00  0.000000E+00
 2.274000E-02  0.000000E+00  0.000000E+00
 3.032000E-02  0.000000E+00  0.000000E+00
 3.790000E-02  0.000000E+00  0.000000E+00
 4.548000E-02  0.000000E+00  0.000000E+00
 5.306000E-02  0.000000E+00  0.000000E+00
 6.064000E-02  0.000000E+00  0.000000E+00
 6.822000E-02  0.000000E+00  0.000000E+00
 7.580000E-02  0.000000E+00  0.000000E+00
 8.338000E-02  0.000000E+00  0.000000E+00
 9.096000E-02  0.000000E+00  0.000000E+00
 9.854000E-02  0.000000E+00  0.000000E+00
 1.061200E-01  0.000000E+00  0.000000E+00
 1.137000E-01  0.000000E+00  0.000000E+00
 1.212800E-01  0.000000E+00  0.000000E+00
 1.288600E-01  0.000000E+00  0.000000E+00
 1.364400E-01  0.000000E+00  0.000000E+00
 1.440200E-01  0.000000E+00  0.000000E+00
 1.516000E-01  0.000000E+00  0.000000E+00
 0.000000E+00  1.125000E-02  0.000000E+00
 7.580000E-03  1.125000E-02  0.000000E+00
 1.516000E-02  1.125000E-02  0.000000E+00
 2.274000E-02  1.125000E-02  0.000000E+00
 3.032000E-02  1.125000E-02  0.000000E+00
 3.790000E-02  1.125000E-02  0.000000E+00
 4.548000E-02  1.125000E-02  0.000000E+00
 5.306000E-02  1.125000E-02  0.000000E+00
 6.064000E-02  1.125000E-02  0.000000E+00
 6.822000E-02  1.125000E-02  0.000000E+00
 7.580000E-02  1.125000E-02  0.000000E+00
 8.338000E-02  1.125000E-02  0.000000E+00
 9.096000E-02  1.125000E-02  0.000000E+00
 9.854000E-02  1.125000E-02  0.000000E+00
 1.061200E-01  1.125000E-02  0.000000E+00
 1.137000E-01  1.125000E-02  0.000000E+00
 1.212800E-01  1.125000E-02  0.000000E+00
 1.288600E-01  1.125000E-02  0.000000E+00
 1.364400E-01  1.125000E-02  0.000000E+00
 1.440200E-01  1.125000E-02  0.000000E+00
 1.516000E-01  1.125000E-02  0.000000E+00
 0.000000E+00  0.000000E+00  1.125000E-02
 7.580000E-03  0.000000E+00  1.125000E-02
 1.516000E-02  0.000000E+00  1.125000E-02
 2.274000E-02  0.000000E+00  1.125000E-02
 3.032000E-02  0.000000E+00  1.125000E-02
 3.790000E-02  0.000000E+00  1.125000E-02
 4.548000E-02  0.000000E+00  1.125000E-02
 5.306000E-02  0.000000E+00  1.125000E-02
 6.064000E-02  0.000000E+00  1.125000E-02
 6.822000E-02  0.000000E+00  1.125000E-02
 7.580000E-02  0.000000E+00  1.125000E-02
 8.338000E-02  0.000000E+00  1.125000E-02
 9.096000E-02  0.000000E+00  1.125000E-02
 9.854000E-02  0.000000E+00  1.125000E-02
 1.061200E-01  0.000000E+00  1.125000E-02
 1.137000E-01  0.000000E+00  1.125000E-02
 1.212800E-01  0.000000E+00  1.125000E-02
 1.288600E-01  0.000000E+00  1.125000E-02
 1.364400E-01  0.000000E+00  1.125000E-02
 1.440200E-01  0.000000E+00  1.125000E-02
 1.516000E-01  0.000000E+00  1.125000E-02
 0.000000E+00  1.125000E-02  1.125000E-02
 7.580000E-03  1.125000E-02  1.125000E-02
 1.516000E-02  1.125000E-02  1.125000E-02
 2.274000E-02  1.125000E-02  1.125000E-02
 3.032000E-02  1.125000E-02  1.125000E-02
 3.790000E-02  1.125000E-02  1.125000E-02
 4.548000E-02  1.125000E-02  1.125000E-02
 5.306000E-02  1.125000E-02  1.125000E-02
 6.064000E-02  1.125000E-02  1.125000E-02
 6.822000E-02  1.125000E-02  1.125000E-02
 7.580000E-02  1.125000E-02  1.125000E-02
 8.338000E-02  1.125000E-02  1.125000E-02
 9.096000E-02  1.125000E-02  1.125000E-02
 9.854000E-02  1.125000E-02  1.125000E-02
 1.061200E-01  1.125000E-02  1.125000E-02
 1.137000E-01  1.125000E-02  1.125000E-02
 1.212800E-01  1.125000E-02  1.125000E-02
 1.288600E-01  1.125000E-02  1.125000E-02
 1.364400E-01  1.125000E-02  1.125000E-02
 1.440200E-01  1.125000E-02  1.125000E-02
 1.516000E-01  1.125000E-02  1.125000E-02
CELLS           20          180
8        0        1       22       21       42       43       64       63
8        1        2       23       22       43       44       65       64
8        2        3       24       23       44       45       66       65
8        3        4       25       24       45       46       67       66
8        4        5       26       25       46       47       68       67
8        5        6       27       26       47       48       69       68
8        6        7       28       27       48       49       70       69
8        7        8       29       28       49       50       71       70
8        8        9       30       29       50       51       72       71
8        9       10       31       30       51       52       73       72
8       10       11       32       31       52       53       74       73
8       11       12       33       32       53       54       75       74
8       12       13       34       33       54       55       76       75
8       13       14       35       34       55       56       77       76
8       14       15       36       35       56       57       78       77
8       15       16       37       36       57       58       79       78
8       16       17       38       37       58       59       80       79
8       17       18       39       38       59       60       81       80
8       18       19       40       39       60       61       82       81
8       19       20       41       40       61       62       83       82

CELL_TYPES           20
12
12
12
12
12
12
12
12
12
12
12
12
12
12
12
12
12
12
12
12

CELL_DATA       20
SCALARS Porosity             float 1
LOOKUP_TABLE default
 9.870203E-01  9.865861E-01  9.863167E-01  9.861206E-01  9.859641E-01  9.858317E-01  9.857151E-01  9.856095E-01  9.855123E-01  9.854217E-01
 9.853368E-01  9.852571E-01  9.851823E-01  9.851122E-01  9.850469E-01  9.849864E-01  9.849307E-01  9.848798E-01  9.848337E-01  9.847923E-01


SCALARS Permeability_X       float 1
LOOKUP_TABLE default
 1.000000E-12  1.000000E-12  1.000000E-12  1.000000E-12  1.000000E-12  1.000000E-12  1.000000E-12  1.000000E-12  1.000000E-12  1.000000E-12
 1.000000E-12  1.000000E-12  1.000000E-12  1.000000E-12  1.000000E-12  1.000000E-12  1.000000E-12  1.000000E-12  1.000000E-12  1.000000E-12


SCALARS Liquid_Pressure      float 1
LOOKUP_TABLE default
 7.500296E+06  7.500281E+06  7.500266E+06  7.500250E+06  7.500235E+06  7.500220E+06  7.500205E+06  7.500190E+06  7.500175E+06  7.500159E+06
 7.500144E+06  7.500129E+06  7.500114E+06  7.500099E+06  7.500083E+06  7.500068E+06  7.500053E+06  7.500038E+06  7.500023E+06  7.500008E+06


SCALARS Temperature          float 1
LOOKUP_TABLE default
 1.500000E+02  1.499999E+02  1.499998E+02  1.499998E+02  1.499997E+02  1.499997E+02  1.499996E+02  1.499996E+02  1.499996E+02  1.499995E+02
 1.499995E+02  1.499995E+02  1.499995E+02  1.499995E+02  1.499995E+02  1.499996E+02  1.499996E+02  1.499997E+02  1.499998E+02  1.499999E+02


SCALARS pH                   float 1
LOOKUP_TABLE default
 5.042061E+00  5.228080E+00  5.355027E+00  5.450506E+00  5.526695E+00  5.589890E+00  5.643717E+00  5.690425E+00  5.731494E+00  5.767936E+00
 5.800469E+00  5.829618E+00  5.855780E+00  5.879264E+00  5.900319E+00  5.919158E+00  5.935964E+00  5.950905E+00  5.964139E+00  5.975791E+00


SCALARS Total_H+             float 1
LOOKUP_TABLE default
-5.156388E-04 -7.013911E-04 -8.786391E-04 -1.048182E-03 -1.211018E-03 -1.367905E-03 -1.519321E-03 -1.665502E-03 -1.806484E-03 -1.942147E-03
-2.072251E-03 -2.196480E-03 -2.314475E-03 -2.425878E-03 -2.530360E-03 -2.627661E-03 -2.717609E-03 -2.800139E-03 -2.875296E-03 -2.943100E-03


SCALARS Total_SiO2(aq)       float 1
LOOKUP_TABLE default
 1.404968E-02  1.403788E-02  1.402441E-02  1.400954E-02  1.399345E-02  1.397628E-02  1.395815E-02  1.393914E-02  1.391933E-02  1.389879E-02
 1.387759E-02  1.385579E-02  1.383344E-02  1.381060E-02  1.378732E-02  1.376365E-02  1.373965E-02  1.371536E-02  1.369082E-02  1.366615E-02


SCALARS Total_Al+++          float 1
LOOKUP_TABLE default
 6.015348E-05  6.015348E-05  6.015348E-05  6.015348E-05  6.015348E-05  6.015349E-05  6.015349E-05  6.015349E-05  6.015349E-05  6.015349E-05
 6.015349E-05  6.015349E-05  6.015349E-05  6.015349E-05  6.015349E-05  6.015349E-05  6.015349E-05  6.015349E-05  6.015349E-05  6.015349E-05


SCALARS Total_Ca++           float 1
LOOKUP_TABLE default
 1.652865E-04  2.581626E-04  3.467866E-04  4.315579E-04  5.129762E-04  5.914196E-04  6.671276E-04  7.402180E-04  8.107090E-04  8.785403E-04
 9.435926E-04  1.005707E-03  1.064705E-03  1.120406E-03  1.172647E-03  1.221298E-03  1.266272E-03  1.307536E-03  1.345115E-03  1.379017E-03


SCALARS Total_Cl-            float 1
LOOKUP_TABLE default
 2.513233E-02  2.513233E-02  2.513233E-02  2.513233E-02  2.513233E-02  2.513233E-02  2.513233E-02  2.513233E-02  2.513233E-02  2.513233E-02
 2.513233E-02  2.513233E-02  2.513233E-02  2.513233E-02  2.513233E-02  2.513233E-02  2.513233E-02  2.513233E-02  2.513233E-02  2.513233E-02


SCALARS Total_CO2(aq)        float 1
LOOKUP_TABLE default
 1.366199E-02  1.375486E-02  1.384349E-02  1.392826E-02  1.400968E-02  1.408812E-02  1.416383E-02  1.423692E-02  1.430741E-02  1.437524E-02
 1.444029E-02  1.450241E-02  1.456140E-02  1.461711E-02  1.466935E-02  1.471800E-02  1.476297E-02  1.480424E-02  1.484181E-02  1.487572E-02


SCALARS Total_Na+            float 1
LOOKUP_TABLE default
 3.122900E-02  3.122900E-02  3.122900E-02  3.122900E-02  3.122900E-02  3.122900E-02  3.122900E-02  3.122900E-02  3.122900E-02  3.122900E-02
 3.122900E-02  3.122900E-02  3.122900E-02  3.122900E-02  3.122900E-02  3.122900E-02  3.122900E-02  3.122900E-02  3.122900E-02  3.122900E-02


SCALARS Total_K+             float 1
LOOKUP_TABLE default
 2.655416E-03  2.655416E-03  2.655416E-03  2.655416E-03  2.655416E-03  2.655416E-03  2.655416E-03  2.655416E-03  2.655416E-03  2.655416E-03
 2.655416E-03  2.655416E-03  2.655416E-03  2.655416E-03  2.655416E-03  2.655415E-03  2.655415E-03  2.655415E-03  2.655415E-03  2.655415E-03


SCALARS Total_Mg++           float 1
LOOKUP_TABLE default
 8.216757E-07  8.216757E-07  8.216757E-07  8.216757E-07  8.216757E-07  8.216757E-07  8.216757E-07  8.216757E-07  8.216757E-07  8.216757E-07
 8.216757E-07  8.216757E-07  8.216756E-07  8.216756E-07  8.216756E-07  8.216756E-07  8.216756E-07  8.216756E-07  8.216756E-07  8.216756E-07


SCALARS Total_Fe++           float 1
LOOKUP_TABLE default
 1.251593E-06  1.251593E-06  1.251593E-06  1.251593E-06  1.251593E-06  1.251593E-06  1.251593E-06  1.251593E-06  1.251593E-06  1.251593E-06
 1.251593E-06  1.251593E-06  1.251592E-06  1.251592E-06  1.251592E-06  1.251592E-06  1.251592E-06  1.251592E-06  1.251592E-06  1.251592E-06


SCALARS Total_Cu++           float 1
LOOKUP_TABLE default
 9.952832E-11  9.952832E-11  9.952832E-11  9.952832E-11  9.952832E-11  9.952832E-11  9.952832E-11  9.952832E-11  9.952832E-11  9.952832E-11
 9.952832E-11  9.952832E-11  9.952832E-11  9.952832E-11  9.952832E-11  9.952832E-11  9.952832E-11  9.952831E-11  9.952831E-11  9.952831E-11


SCALARS Total_SO4--          float 1
LOOKUP_TABLE default
 4.376188E-03  4.376188E-03  4.376188E-03  4.376188E-03  4.376188E-03  4.376188E-03  4.376188E-03  4.376188E-03  4.376188E-03  4.376188E-03
 4.376188E-03  4.376188E-03  4.376188E-03  4.376188E-03  4.376188E-03  4.376188E-03  4.376188E-03  4.376188E-03  4.376188E-03  4.376188E-03


SCALARS Total_Tracer         float 1
LOOKUP_TABLE default
 9.952832E-11  9.952832E-11  9.952832E-11  9.952832E-11  9.952832E-11  9.952832E-11  9.952832E-11  9.952832E-11  9.952832E-11  9.952832E-11
 9.952832E-11  9.952832E-11  9.952832E-11  9.952832E-11  9.952832E-11  9.952832E-11  9.952832E-11  9.952831E-11  9.952831E-11  9.952831E-11


SCALARS Active_Gas_CO2(g)    float 1
LOOKUP_TABLE default
 0.000000E+00  0.000000E+00  0.000000E+00  0.000000E+00  0.000000E+00  0.000000E+00  0.000000E+00  0.000000E+00  0.000000E+00  0.000000E+00
 0.000000E+00  0.000000E+00  0.000000E+00  0.000000E+00  0.000000E+00  0.000000E+00  0.000000E+00  0.000000E+00  0.000000E+00  0.000000E+00


SCALARS HCO3-                float 1
LOOKUP_TABLE default
 3.342189E-04  5.097800E-04  6.787397E-04  8.406693E-04  9.961571E-04  1.145785E-03  1.289952E-03  1.428861E-03  1.562545E-03  1.690900E-03
 1.813719E-03  1.930727E-03  2.041618E-03  2.146087E-03  2.243864E-03  2.334741E-03  2.418595E-03  2.495400E-03  2.565235E-03  2.628147E-03


SCALARS H2SiO4--             float 1
LOOKUP_TABLE default
 1.459410E-12  3.436854E-12  6.165163E-12  9.566187E-12  1.358024E-11  1.815710E-11  2.324928E-11  2.880723E-11  3.477610E-11  4.109361E-11
 4.768907E-11  5.448364E-11  6.139165E-11  6.832307E-11  7.518678E-11  8.189444E-11  8.836436E-11  9.452506E-11  1.003180E-10  1.056880E-10


SCALARS H3SiO4-              float 1
LOOKUP_TABLE default
 2.666705E-06  4.089500E-06  5.473204E-06  6.812391E-06  8.110142E-06  9.369756E-06  1.059320E-05  1.178093E-05  1.293199E-05  1.404428E-05
 1.511478E-05  1.613983E-05  1.711547E-05  1.803774E-05  1.890299E-05  1.970817E-05  2.045108E-05  2.113048E-05  2.174623E-05  2.229813E-05


SCALARS Calcite_VF           float 1
LOOKUP_TABLE default
 1.267856E-02  1.307693E-02  1.332158E-02  1.349852E-02  1.363949E-02  1.375915E-02  1.386518E-02  1.396192E-02  1.405189E-02  1.413657E-02
 1.421680E-02  1.429300E-02  1.436534E-02  1.443382E-02  1.449837E-02  1.455884E-02  1.461513E-02  1.466715E-02  1.471487E-02  1.475822E-02


SCALARS SiO2(am)_VF          float 1
LOOKUP_TABLE default
 2.543232E-04  2.926655E-04  3.204976E-04  3.423178E-04  3.601087E-04  3.749325E-04  3.874317E-04  3.980291E-04  4.070221E-04  4.146315E-04
 4.210292E-04  4.263543E-04  4.307240E-04  4.342394E-04  4.369902E-04  4.390573E-04  4.405144E-04  4.414295E-04  4.418649E-04  4.418796E-04


SCALARS Calcite_Rate         float 1
LOOKUP_TABLE default
-1.274424E-04 -1.232997E-04 -1.174812E-04 -1.122180E-04 -1.076399E-04 -1.035828E-04 -9.986063E-05 -9.631119E-05 -9.280180E-05 -8.922765E-05
-8.551026E-05 -8.159680E-05 -7.745990E-05 -7.309703E-05 -6.852904E-05 -6.379733E-05 -5.895949E-05 -5.408393E-05 -4.924387E-05 -4.452168E-05


SCALARS SiO2(am)_Rate        float 1
LOOKUP_TABLE default
 1.293396E-05  1.568111E-05  1.788561E-05  1.973455E-05  2.133333E-05  2.274461E-05  2.400776E-05  2.514856E-05  2.618428E-05  2.712664E-05
 2.798369E-05  2.876100E-05  2.946251E-05  3.009118E-05  3.064949E-05  3.113975E-05  3.156440E-05  3.192616E-05  3.222809E-05  3.247323E-05


SCALARS Calcite_Area         float 1
LOOKUP_TABLE default
 3.853845E+00  5.238121E+00  6.289591E+00  7.162345E+00  7.933167E+00  8.644768E+00  9.322460E+00  9.981611E+00  1.063135E+01  1.127654E+01
 1.191900E+01  1.255820E+01  1.319184E+01  1.381637E+01  1.442735E+01  1.501994E+01  1.558927E+01  1.613084E+01  1.664077E+01  1.711510E+01


SCALARS SiO2(am)_Area        float 1
LOOKUP_TABLE default
 1.586822E+05  1.514695E+05  1.469863E+05  1.438226E+05  1.414379E+05  1.395699E+05  1.380717E+05  1.368530E+05  1.358542E+05  1.350337E+05
 1.343611E+05  1.338136E+05  1.333730E+05  1.330248E+05  1.327570E+05  1.325594E+05  1.324234E+05  1.323413E+05  1.323065E+05  1.323128E+05


SCALARS Material_ID          int 1
LOOKUP_TABLE default
  1
  1
  1
  1
  1
  1
  1
  1
  1
  1
  1
  1
  1
  1
  1
  1
  1
  1
  1
  1


