# vtk DataFile Version 2.0
PFLOTRAN output
ASCII
DATASET UNSTRUCTURED_GRID
POINTS           84 float
 0.000000E+00  0.000000E+00  0.000000E+00
 7.580000E-03  0.000000E+00  0.000000E+00
 1.516000E-02  0.000000E+00  0.000000E+00
 2.274000E-02  0.000000E+00  0.000000E+00
 3.032000E-02  0.000000E+00  0.000000E+00
 3.790000E-02  0.000000E+00  0.000000E+00
 4.548000E-02  0.000000E+00  0.000000E+00
 5.306000E-02  0.000000E+00  0.000000E+00
 6.064000E-02  0.000000E+00  0.000000E+00
 6.822000E-02  0.000000E+00  0.000000E+00
 7.580000E-02  0.000000E+00  0.000000E+00
 8.338000E-02  0.000000E+00  0.000000E+00
 9.096000E-02  0.000000E+00  0.000000E+00
 9.854000E-02  0.000000E+00  0.000000E+00
 1.061200E-01  0.000000E+00  0.000000E+00
 1.137000E-01  0.000000E+00  0.000000E+00
 1.212800E-01  0.000000E+00  0.000000E+00
 1.288600E-01  0.000000E+00  0.000000E+00
 1.364400E-01  0.000000E+00  0.000000E+00
 1.440200E-01  0.000000E+00  0.000000E+00
 1.516000E-01  0.000000E+00  0.000000E+00
 0.000000E+00  1.125000E-02  0.000000E+00
 7.580000E-03  1.125000E-02  0.000000E+00
 1.516000E-02  1.125000E-02  0.000000E+00
 2.274000E-02  1.125000E-02  0.000000E+00
 3.032000E-02  1.125000E-02  0.000000E+00
 3.790000E-02  1.125000E-02  0.000000E+00
 4.548000E-02  1.125000E-02  0.000000E+00
 5.306000E-02  1.125000E-02  0.000000E+00
 6.064000E-02  1.125000E-02  0.000000E+00
 6.822000E-02  1.125000E-02  0.000000E+00
 7.580000E-02  1.125000E-02  0.000000E+00
 8.338000E-02  1.125000E-02  0.000000E+00
 9.096000E-02  1.125000E-02  0.000000E+00
 9.854000E-02  1.125000E-02  0.000000E+00
 1.061200E-01  1.125000E-02  0.000000E+00
 1.137000E-01  1.125000E-02  0.000000E+00
 1.212800E-01  1.125000E-02  0.000000E+00
 1.288600E-01  1.125000E-02  0.000000E+00
 1.364400E-01  1.125000E-02  0.000000E+00
 1.440200E-01  1.125000E-02  0.000000E+00
 1.516000E-01  1.125000E-02  0.000000E+00
 0.000000E+00  0.000000E+00  1.125000E-02
 7.580000E-03  0.000000E+00  1.125000E-02
 1.516000E-02  0.000000E+00  1.125000E-02
 2.274000E-02  0.000000E+00  1.125000E-02
 3.032000E-02  0.000000E+00  1.125000E-02
 3.790000E-02  0.000000E+00  1.125000E-02
 4.548000E-02  0.000000E+00  1.125000E-02
 5.306000E-02  0.000000E+00  1.125000E-02
 6.064000E-02  0.000000E+00  1.125000E-02
 6.822000E-02  0.000000E+00  1.125000E-02
 7.580000E-02  0.000000E+00  1.125000E-02
 8.338000E-02  0.000000E+00  1.125000E-02
 9.096000E-02  0.000000E+00  1.125000E-02
 9.854000E-02  0.000000E+00  1.125000E-02
 1.061200E-01  0.000000E+00  1.125000E-02
 1.137000E-01  0.000000E+00  1.125000E-02
 1.212800E-01  0.000000E+00  1.125000E-02
 1.288600E-01  0.000000E+00  1.125000E-02
 1.364400E-01  0.000000E+00  1.125000E-02
 1.440200E-01  0.000000E+00  1.125000E-02
 1.516000E-01  0.000000E+00  1.125000E-02
 0.000000E+00  1.125000E-02  1.125000E-02
 7.580000E-03  1.125000E-02  1.125000E-02
 1.516000E-02  1.125000E-02  1.125000E-02
 2.274000E-02  1.125000E-02  1.125000E-02
 3.032000E-02  1.125000E-02  1.125000E-02
 3.790000E-02  1.125000E-02  1.125000E-02
 4.548000E-02  1.125000E-02  1.125000E-02
 5.306000E-02  1.125000E-02  1.125000E-02
 6.064000E-02  1.125000E-02  1.125000E-02
 6.822000E-02  1.125000E-02  1.125000E-02
 7.580000E-02  1.125000E-02  1.125000E-02
 8.338000E-02  1.125000E-02  1.125000E-02
 9.096000E-02  1.125000E-02  1.125000E-02
 9.854000E-02  1.125000E-02  1.125000E-02
 1.061200E-01  1.125000E-02  1.125000E-02
 1.137000E-01  1.125000E-02  1.125000E-02
 1.212800E-01  1.125000E-02  1.125000E-02
 1.288600E-01  1.125000E-02  1.125000E-02
 1.364400E-01  1.125000E-02  1.125000E-02
 1.440200E-01  1.125000E-02  1.125000E-02
 1.516000E-01  1.125000E-02  1.125000E-02
CELLS           20          180
8        0        1       22       21       42       43       64       63
8        1        2       23       22       43       44       65       64
8        2        3       24       23       44       45       66       65
8        3        4       25       24       45       46       67       66
8        4        5       26       25       46       47       68       67
8        5        6       27       26       47       48       69       68
8        6        7       28       27       48       49       70       69
8        7        8       29       28       49       50       71       70
8        8        9       30       29       50       51       72       71
8        9       10       31       30       51       52       73       72
8       10       11       32       31       52       53       74       73
8       11       12       33       32       53       54       75       74
8       12       13       34       33       54       55       76       75
8       13       14       35       34       55       56       77       76
8       14       15       36       35       56       57       78       77
8       15       16       37       36       57       58       79       78
8       16       17       38       37       58       59       80       79
8       17       18       39       38       59       60       81       80
8       18       19       40       39       60       61       82       81
8       19       20       41       40       61       62       83       82

CELL_TYPES           20
12
12
12
12
12
12
12
12
12
12
12
12
12
12
12
12
12
12
12
12

CELL_DATA       20
SCALARS Porosity             float 1
LOOKUP_TABLE default
 9.893663E-01  9.890637E-01  9.888163E-01  9.886044E-01  9.884183E-01  9.882516E-01  9.881002E-01  9.879612E-01  9.878321E-01  9.877113E-01
 9.875973E-01  9.874890E-01  9.873857E-01  9.872864E-01  9.871906E-01  9.870977E-01  9.870074E-01  9.869191E-01  9.868327E-01  9.867479E-01


SCALARS Permeability_X       float 1
LOOKUP_TABLE default
 1.000000E-12  1.000000E-12  1.000000E-12  1.000000E-12  1.000000E-12  1.000000E-12  1.000000E-12  1.000000E-12  1.000000E-12  1.000000E-12
 1.000000E-12  1.000000E-12  1.000000E-12  1.000000E-12  1.000000E-12  1.000000E-12  1.000000E-12  1.000000E-12  1.000000E-12  1.000000E-12


SCALARS Liquid_Pressure      float 1
LOOKUP_TABLE default
 7.500296E+06  7.500281E+06  7.500266E+06  7.500250E+06  7.500235E+06  7.500220E+06  7.500205E+06  7.500190E+06  7.500175E+06  7.500159E+06
 7.500144E+06  7.500129E+06  7.500114E+06  7.500099E+06  7.500083E+06  7.500068E+06  7.500053E+06  7.500038E+06  7.500023E+06  7.500008E+06


SCALARS Temperature          float 1
LOOKUP_TABLE default
 1.500000E+02  1.500000E+02  1.500000E+02  1.500000E+02  1.500000E+02  1.499999E+02  1.499999E+02  1.499999E+02  1.499999E+02  1.499999E+02
 1.499999E+02  1.499999E+02  1.499999E+02  1.499999E+02  1.499999E+02  1.499999E+02  1.499999E+02  1.499999E+02  1.499999E+02  1.500000E+02


SCALARS pH                   float 1
LOOKUP_TABLE default
 4.781279E+00  4.840728E+00  4.897628E+00  4.951038E+00  5.000761E+00  5.046942E+00  5.089867E+00  5.129861E+00  5.167245E+00  5.202315E+00
 5.235335E+00  5.266539E+00  5.296128E+00  5.324281E+00  5.351151E+00  5.376874E+00  5.401566E+00  5.425331E+00  5.448261E+00  5.470376E+00


SCALARS Total_H+             float 1
LOOKUP_TABLE default
-3.515227E-04 -3.818159E-04 -4.142642E-04 -4.482790E-04 -4.834813E-04 -5.196214E-04 -5.565336E-04 -5.941090E-04 -6.322773E-04 -6.709954E-04
-7.102397E-04 -7.500010E-04 -7.902806E-04 -8.310875E-04 -8.724373E-04 -9.143500E-04 -9.568497E-04 -9.999635E-04 -1.043721E-03 -1.088034E-03


SCALARS Total_SiO2(aq)       float 1
LOOKUP_TABLE default
 1.405437E-02  1.404916E-02  1.404372E-02  1.403803E-02  1.403208E-02  1.402589E-02  1.401944E-02  1.401275E-02  1.400582E-02  1.399865E-02
 1.399125E-02  1.398362E-02  1.397577E-02  1.396770E-02  1.395941E-02  1.395092E-02  1.394221E-02  1.393330E-02  1.392418E-02  1.391489E-02


SCALARS Total_Al+++          float 1
LOOKUP_TABLE default
 6.015348E-05  6.015348E-05  6.015348E-05  6.015348E-05  6.015348E-05  6.015348E-05  6.015348E-05  6.015348E-05  6.015348E-05  6.015348E-05
 6.015348E-05  6.015348E-05  6.015348E-05  6.015348E-05  6.015348E-05  6.015348E-05  6.015348E-05  6.015348E-05  6.015348E-05  6.015348E-05


SCALARS Total_Ca++           float 1
LOOKUP_TABLE default
 8.322841E-05  9.837504E-05  1.145992E-04  1.316066E-04  1.492077E-04  1.672778E-04  1.857339E-04  2.045216E-04  2.236057E-04  2.429647E-04
 2.625869E-04  2.824676E-04  3.026073E-04  3.230108E-04  3.436857E-04  3.646421E-04  3.858919E-04  4.074488E-04  4.293273E-04  4.514843E-04


SCALARS Total_Cl-            float 1
LOOKUP_TABLE default
 2.513233E-02  2.513233E-02  2.513233E-02  2.513233E-02  2.513233E-02  2.513233E-02  2.513233E-02  2.513233E-02  2.513233E-02  2.513233E-02
 2.513233E-02  2.513233E-02  2.513233E-02  2.513233E-02  2.513233E-02  2.513233E-02  2.513233E-02  2.513233E-02  2.513233E-02  2.513233E-02


SCALARS Total_CO2(aq)        float 1
LOOKUP_TABLE default
 1.357993E-02  1.359507E-02  1.361130E-02  1.362831E-02  1.364591E-02  1.366398E-02  1.368243E-02  1.370122E-02  1.372031E-02  1.373966E-02
 1.375929E-02  1.377917E-02  1.379931E-02  1.381971E-02  1.384039E-02  1.386134E-02  1.388259E-02  1.390415E-02  1.392603E-02  1.394818E-02


SCALARS Total_Na+            float 1
LOOKUP_TABLE default
 3.122900E-02  3.122900E-02  3.122900E-02  3.122900E-02  3.122900E-02  3.122900E-02  3.122900E-02  3.122900E-02  3.122900E-02  3.122900E-02
 3.122900E-02  3.122900E-02  3.122900E-02  3.122900E-02  3.122900E-02  3.122900E-02  3.122900E-02  3.122900E-02  3.122900E-02  3.122900E-02


SCALARS Total_K+             float 1
LOOKUP_TABLE default
 2.655416E-03  2.655416E-03  2.655416E-03  2.655416E-03  2.655416E-03  2.655416E-03  2.655416E-03  2.655416E-03  2.655416E-03  2.655416E-03
 2.655416E-03  2.655416E-03  2.655416E-03  2.655416E-03  2.655416E-03  2.655416E-03  2.655416E-03  2.655416E-03  2.655416E-03  2.655416E-03


SCALARS Total_Mg++           float 1
LOOKUP_TABLE default
 8.216757E-07  8.216757E-07  8.216757E-07  8.216757E-07  8.216757E-07  8.216757E-07  8.216757E-07  8.216757E-07  8.216757E-07  8.216757E-07
 8.216757E-07  8.216757E-07  8.216757E-07  8.216756E-07  8.216756E-07  8.216756E-07  8.216756E-07  8.216756E-07  8.216756E-07  8.216756E-07


SCALARS Total_Fe++           float 1
LOOKUP_TABLE default
 1.251593E-06  1.251593E-06  1.251593E-06  1.251593E-06  1.251593E-06  1.251593E-06  1.251593E-06  1.251593E-06  1.251593E-06  1.251593E-06
 1.251593E-06  1.251593E-06  1.251593E-06  1.251593E-06  1.251593E-06  1.251592E-06  1.251592E-06  1.251592E-06  1.251592E-06  1.251592E-06


SCALARS Total_Cu++           float 1
LOOKUP_TABLE default
 9.952832E-11  9.952832E-11  9.952832E-11  9.952832E-11  9.952832E-11  9.952832E-11  9.952832E-11  9.952832E-11  9.952832E-11  9.952832E-11
 9.952832E-11  9.952832E-11  9.952832E-11  9.952832E-11  9.952832E-11  9.952832E-11  9.952832E-11  9.952832E-11  9.952832E-11  9.952832E-11


SCALARS Total_SO4--          float 1
LOOKUP_TABLE default
 4.376188E-03  4.376188E-03  4.376188E-03  4.376188E-03  4.376188E-03  4.376188E-03  4.376188E-03  4.376188E-03  4.376188E-03  4.376188E-03
 4.376188E-03  4.376188E-03  4.376188E-03  4.376188E-03  4.376188E-03  4.376188E-03  4.376188E-03  4.376188E-03  4.376188E-03  4.376188E-03


SCALARS Total_Tracer         float 1
LOOKUP_TABLE default
 9.952832E-11  9.952832E-11  9.952832E-11  9.952832E-11  9.952832E-11  9.952832E-11  9.952832E-11  9.952832E-11  9.952832E-11  9.952832E-11
 9.952832E-11  9.952832E-11  9.952832E-11  9.952832E-11  9.952832E-11  9.952832E-11  9.952832E-11  9.952832E-11  9.952832E-11  9.952832E-11


SCALARS Active_Gas_CO2(g)    float 1
LOOKUP_TABLE default
 0.000000E+00  0.000000E+00  0.000000E+00  0.000000E+00  0.000000E+00  0.000000E+00  0.000000E+00  0.000000E+00  0.000000E+00  0.000000E+00
 0.000000E+00  0.000000E+00  0.000000E+00  0.000000E+00  0.000000E+00  0.000000E+00  0.000000E+00  0.000000E+00  0.000000E+00  0.000000E+00


SCALARS HCO3-                float 1
LOOKUP_TABLE default
 1.842521E-04  2.111008E-04  2.404217E-04  2.716014E-04  3.042113E-04  3.379517E-04  3.726138E-04  4.080535E-04  4.441722E-04  4.809046E-04
 5.182090E-04  5.560613E-04  5.944506E-04  6.333758E-04  6.728433E-04  7.128655E-04  7.534594E-04  7.946457E-04  8.364477E-04  8.787787E-04


SCALARS H2SiO4--             float 1
LOOKUP_TABLE default
 4.390405E-13  5.771430E-13  7.498305E-13  9.586465E-13  1.204966E-12  1.490055E-12  1.815145E-12  2.181492E-12  2.590419E-12  3.043350E-12
 3.541834E-12  4.087562E-12  4.682385E-12  5.328328E-12  6.027602E-12  6.782615E-12  7.595987E-12  8.470561E-12  9.409410E-12  1.041311E-11


SCALARS H3SiO4-              float 1
LOOKUP_TABLE default
 1.463207E-06  1.677252E-06  1.911332E-06  2.160611E-06  2.421712E-06  2.692273E-06  2.970653E-06  3.255718E-06  3.546699E-06  3.843089E-06
 4.144571E-06  4.450970E-06  4.762215E-06  5.078319E-06  5.399356E-06  5.725450E-06  6.056764E-06  6.393495E-06  6.735865E-06  7.083193E-06


SCALARS Calcite_VF           float 1
LOOKUP_TABLE default
 9.970208E-03  1.019096E-02  1.036941E-02  1.052123E-02  1.065409E-02  1.077273E-02  1.088037E-02  1.097936E-02  1.107144E-02  1.115797E-02
 1.124001E-02  1.131841E-02  1.139387E-02  1.146695E-02  1.153812E-02  1.160780E-02  1.167633E-02  1.174400E-02  1.181107E-02  1.187761E-02


SCALARS SiO2(am)_VF          float 1
LOOKUP_TABLE default
 6.583758E-04  7.394789E-04  8.079514E-04  8.676729E-04  9.207943E-04  9.686881E-04  1.012301E-03  1.052319E-03  1.089258E-03  1.123519E-03
 1.155417E-03  1.185206E-03  1.213094E-03  1.239253E-03  1.263828E-03  1.286939E-03  1.308692E-03  1.329176E-03  1.348468E-03  1.366591E-03


SCALARS Calcite_Rate         float 1
LOOKUP_TABLE default
-1.807348E-05 -2.015448E-05 -2.158171E-05 -2.261639E-05 -2.339831E-05 -2.401374E-05 -2.451878E-05 -2.495107E-05 -2.533647E-05 -2.569314E-05
-2.603406E-05 -2.636868E-05 -2.670402E-05 -2.704538E-05 -2.739685E-05 -2.776159E-05 -2.814216E-05 -2.854057E-05 -2.895848E-05 -2.939624E-05


SCALARS SiO2(am)_Rate        float 1
LOOKUP_TABLE default
 6.684840E-06  6.938836E-06  7.244711E-06  7.572686E-06  7.908295E-06  8.244056E-06  8.576077E-06  8.902419E-06  9.222233E-06  9.535294E-06
 9.841723E-06  1.014184E-05  1.043606E-05  1.072487E-05  1.100874E-05  1.128817E-05  1.156363E-05  1.183556E-05  1.210441E-05  1.236987E-05


SCALARS Calcite_Area         float 1
LOOKUP_TABLE default
 3.372848E-01  4.201352E-01  4.999876E-01  5.783649E-01  6.558169E-01  7.327109E-01  8.093839E-01  8.861740E-01  9.634252E-01  1.041485E+00
 1.120707E+00  1.201444E+00  1.284058E+00  1.368915E+00  1.456394E+00  1.546883E+00  1.640789E+00  1.738537E+00  1.840578E+00  1.947111E+00


SCALARS SiO2(am)_Area        float 1
LOOKUP_TABLE default
 1.150718E+05  1.106921E+05  1.074677E+05  1.049405E+05  1.028809E+05  1.011558E+05  9.968133E+04  9.840127E+04  9.727617E+04  9.627737E+04
 9.538341E+04  9.457789E+04  9.384796E+04  9.318342E+04  9.257604E+04  9.201909E+04  9.150701E+04  9.103516E+04  9.059963E+04  9.019806E+04


SCALARS Material_ID          int 1
LOOKUP_TABLE default
  1
  1
  1
  1
  1
  1
  1
  1
  1
  1
  1
  1
  1
  1
  1
  1
  1
  1
  1
  1


