# vtk DataFile Version 2.0
PFLOTRAN output
ASCII
DATASET UNSTRUCTURED_GRID
POINTS           84 float
 0.000000E+00  0.000000E+00  0.000000E+00
 7.580000E-03  0.000000E+00  0.000000E+00
 1.516000E-02  0.000000E+00  0.000000E+00
 2.274000E-02  0.000000E+00  0.000000E+00
 3.032000E-02  0.000000E+00  0.000000E+00
 3.790000E-02  0.000000E+00  0.000000E+00
 4.548000E-02  0.000000E+00  0.000000E+00
 5.306000E-02  0.000000E+00  0.000000E+00
 6.064000E-02  0.000000E+00  0.000000E+00
 6.822000E-02  0.000000E+00  0.000000E+00
 7.580000E-02  0.000000E+00  0.000000E+00
 8.338000E-02  0.000000E+00  0.000000E+00
 9.096000E-02  0.000000E+00  0.000000E+00
 9.854000E-02  0.000000E+00  0.000000E+00
 1.061200E-01  0.000000E+00  0.000000E+00
 1.137000E-01  0.000000E+00  0.000000E+00
 1.212800E-01  0.000000E+00  0.000000E+00
 1.288600E-01  0.000000E+00  0.000000E+00
 1.364400E-01  0.000000E+00  0.000000E+00
 1.440200E-01  0.000000E+00  0.000000E+00
 1.516000E-01  0.000000E+00  0.000000E+00
 0.000000E+00  1.125000E-02  0.000000E+00
 7.580000E-03  1.125000E-02  0.000000E+00
 1.516000E-02  1.125000E-02  0.000000E+00
 2.274000E-02  1.125000E-02  0.000000E+00
 3.032000E-02  1.125000E-02  0.000000E+00
 3.790000E-02  1.125000E-02  0.000000E+00
 4.548000E-02  1.125000E-02  0.000000E+00
 5.306000E-02  1.125000E-02  0.000000E+00
 6.064000E-02  1.125000E-02  0.000000E+00
 6.822000E-02  1.125000E-02  0.000000E+00
 7.580000E-02  1.125000E-02  0.000000E+00
 8.338000E-02  1.125000E-02  0.000000E+00
 9.096000E-02  1.125000E-02  0.000000E+00
 9.854000E-02  1.125000E-02  0.000000E+00
 1.061200E-01  1.125000E-02  0.000000E+00
 1.137000E-01  1.125000E-02  0.000000E+00
 1.212800E-01  1.125000E-02  0.000000E+00
 1.288600E-01  1.125000E-02  0.000000E+00
 1.364400E-01  1.125000E-02  0.000000E+00
 1.440200E-01  1.125000E-02  0.000000E+00
 1.516000E-01  1.125000E-02  0.000000E+00
 0.000000E+00  0.000000E+00  1.125000E-02
 7.580000E-03  0.000000E+00  1.125000E-02
 1.516000E-02  0.000000E+00  1.125000E-02
 2.274000E-02  0.000000E+00  1.125000E-02
 3.032000E-02  0.000000E+00  1.125000E-02
 3.790000E-02  0.000000E+00  1.125000E-02
 4.548000E-02  0.000000E+00  1.125000E-02
 5.306000E-02  0.000000E+00  1.125000E-02
 6.064000E-02  0.000000E+00  1.125000E-02
 6.822000E-02  0.000000E+00  1.125000E-02
 7.580000E-02  0.000000E+00  1.125000E-02
 8.338000E-02  0.000000E+00  1.125000E-02
 9.096000E-02  0.000000E+00  1.125000E-02
 9.854000E-02  0.000000E+00  1.125000E-02
 1.061200E-01  0.000000E+00  1.125000E-02
 1.137000E-01  0.000000E+00  1.125000E-02
 1.212800E-01  0.000000E+00  1.125000E-02
 1.288600E-01  0.000000E+00  1.125000E-02
 1.364400E-01  0.000000E+00  1.125000E-02
 1.440200E-01  0.000000E+00  1.125000E-02
 1.516000E-01  0.000000E+00  1.125000E-02
 0.000000E+00  1.125000E-02  1.125000E-02
 7.580000E-03  1.125000E-02  1.125000E-02
 1.516000E-02  1.125000E-02  1.125000E-02
 2.274000E-02  1.125000E-02  1.125000E-02
 3.032000E-02  1.125000E-02  1.125000E-02
 3.790000E-02  1.125000E-02  1.125000E-02
 4.548000E-02  1.125000E-02  1.125000E-02
 5.306000E-02  1.125000E-02  1.125000E-02
 6.064000E-02  1.125000E-02  1.125000E-02
 6.822000E-02  1.125000E-02  1.125000E-02
 7.580000E-02  1.125000E-02  1.125000E-02
 8.338000E-02  1.125000E-02  1.125000E-02
 9.096000E-02  1.125000E-02  1.125000E-02
 9.854000E-02  1.125000E-02  1.125000E-02
 1.061200E-01  1.125000E-02  1.125000E-02
 1.137000E-01  1.125000E-02  1.125000E-02
 1.212800E-01  1.125000E-02  1.125000E-02
 1.288600E-01  1.125000E-02  1.125000E-02
 1.364400E-01  1.125000E-02  1.125000E-02
 1.440200E-01  1.125000E-02  1.125000E-02
 1.516000E-01  1.125000E-02  1.125000E-02
CELLS           20          180
8        0        1       22       21       42       43       64       63
8        1        2       23       22       43       44       65       64
8        2        3       24       23       44       45       66       65
8        3        4       25       24       45       46       67       66
8        4        5       26       25       46       47       68       67
8        5        6       27       26       47       48       69       68
8        6        7       28       27       48       49       70       69
8        7        8       29       28       49       50       71       70
8        8        9       30       29       50       51       72       71
8        9       10       31       30       51       52       73       72
8       10       11       32       31       52       53       74       73
8       11       12       33       32       53       54       75       74
8       12       13       34       33       54       55       76       75
8       13       14       35       34       55       56       77       76
8       14       15       36       35       56       57       78       77
8       15       16       37       36       57       58       79       78
8       16       17       38       37       58       59       80       79
8       17       18       39       38       59       60       81       80
8       18       19       40       39       60       61       82       81
8       19       20       41       40       61       62       83       82

CELL_TYPES           20
12
12
12
12
12
12
12
12
12
12
12
12
12
12
12
12
12
12
12
12

CELL_DATA       20
SCALARS Porosity             float 1
LOOKUP_TABLE default
 9.892160E-01  9.888920E-01  9.886316E-01  9.884115E-01  9.882200E-01  9.880499E-01  9.878962E-01  9.877555E-01  9.876252E-01  9.875034E-01
 9.873884E-01  9.872792E-01  9.871747E-01  9.870742E-01  9.869769E-01  9.868824E-01  9.867901E-01  9.866997E-01  9.866109E-01  9.865234E-01


SCALARS Permeability_X       float 1
LOOKUP_TABLE default
 1.000000E-12  1.000000E-12  1.000000E-12  1.000000E-12  1.000000E-12  1.000000E-12  1.000000E-12  1.000000E-12  1.000000E-12  1.000000E-12
 1.000000E-12  1.000000E-12  1.000000E-12  1.000000E-12  1.000000E-12  1.000000E-12  1.000000E-12  1.000000E-12  1.000000E-12  1.000000E-12


SCALARS Liquid_Pressure      float 1
LOOKUP_TABLE default
 7.500296E+06  7.500281E+06  7.500266E+06  7.500250E+06  7.500235E+06  7.500220E+06  7.500205E+06  7.500190E+06  7.500175E+06  7.500159E+06
 7.500144E+06  7.500129E+06  7.500114E+06  7.500099E+06  7.500083E+06  7.500068E+06  7.500053E+06  7.500038E+06  7.500023E+06  7.500008E+06


SCALARS Temperature          float 1
LOOKUP_TABLE default
 1.500000E+02  1.500000E+02  1.500000E+02  1.500000E+02  1.499999E+02  1.499999E+02  1.499999E+02  1.499999E+02  1.499999E+02  1.499999E+02
 1.499999E+02  1.499999E+02  1.499999E+02  1.499999E+02  1.499999E+02  1.499999E+02  1.499999E+02  1.499999E+02  1.499999E+02  1.500000E+02


SCALARS pH                   float 1
LOOKUP_TABLE default
 4.792492E+00  4.861758E+00  4.926596E+00  4.986245E+00  5.040843E+00  5.090854E+00  5.136821E+00  5.179265E+00  5.218652E+00  5.255385E+00
 5.289809E+00  5.322216E+00  5.352852E+00  5.381931E+00  5.409630E+00  5.436106E+00  5.461489E+00  5.485896E+00  5.509426E+00  5.532106E+00


SCALARS Total_H+             float 1
LOOKUP_TABLE default
-3.569797E-04 -3.933875E-04 -4.322543E-04 -4.728266E-04 -5.146451E-04 -5.574241E-04 -6.009853E-04 -6.452193E-04 -6.900622E-04 -7.354808E-04
-7.814631E-04 -8.280123E-04 -8.751423E-04 -9.228747E-04 -9.712370E-04 -1.020261E-03 -1.069981E-03 -1.120435E-03 -1.171660E-03 -1.223558E-03


SCALARS Total_SiO2(aq)       float 1
LOOKUP_TABLE default
 1.405414E-02  1.404864E-02  1.404284E-02  1.403673E-02  1.403031E-02  1.402359E-02  1.401657E-02  1.400925E-02  1.400166E-02  1.399379E-02
 1.398565E-02  1.397725E-02  1.396859E-02  1.395968E-02  1.395053E-02  1.394113E-02  1.393149E-02  1.392162E-02  1.391151E-02  1.390120E-02


SCALARS Total_Al+++          float 1
LOOKUP_TABLE default
 6.015348E-05  6.015348E-05  6.015348E-05  6.015348E-05  6.015348E-05  6.015348E-05  6.015348E-05  6.015348E-05  6.015348E-05  6.015348E-05
 6.015348E-05  6.015348E-05  6.015348E-05  6.015348E-05  6.015348E-05  6.015348E-05  6.015348E-05  6.015348E-05  6.015348E-05  6.015348E-05


SCALARS Total_Ca++           float 1
LOOKUP_TABLE default
 8.595693E-05  1.041608E-04  1.235942E-04  1.438804E-04  1.647896E-04  1.861791E-04  2.079597E-04  2.300767E-04  2.524982E-04  2.752074E-04
 2.981986E-04  3.214732E-04  3.450382E-04  3.689044E-04  3.930856E-04  4.175975E-04  4.424576E-04  4.676845E-04  4.932971E-04  5.192460E-04


SCALARS Total_Cl-            float 1
LOOKUP_TABLE default
 2.513233E-02  2.513233E-02  2.513233E-02  2.513233E-02  2.513233E-02  2.513233E-02  2.513233E-02  2.513233E-02  2.513233E-02  2.513233E-02
 2.513233E-02  2.513233E-02  2.513233E-02  2.513233E-02  2.513233E-02  2.513233E-02  2.513233E-02  2.513233E-02  2.513233E-02  2.513233E-02


SCALARS Total_CO2(aq)        float 1
LOOKUP_TABLE default
 1.358266E-02  1.360086E-02  1.362029E-02  1.364058E-02  1.366149E-02  1.368288E-02  1.370466E-02  1.372678E-02  1.374920E-02  1.377191E-02
 1.379490E-02  1.381817E-02  1.384174E-02  1.386560E-02  1.388979E-02  1.391430E-02  1.393916E-02  1.396438E-02  1.399000E-02  1.401595E-02


SCALARS Total_Na+            float 1
LOOKUP_TABLE default
 3.122900E-02  3.122900E-02  3.122900E-02  3.122900E-02  3.122900E-02  3.122900E-02  3.122900E-02  3.122900E-02  3.122900E-02  3.122900E-02
 3.122900E-02  3.122900E-02  3.122900E-02  3.122900E-02  3.122900E-02  3.122900E-02  3.122900E-02  3.122900E-02  3.122900E-02  3.122900E-02


SCALARS Total_K+             float 1
LOOKUP_TABLE default
 2.655416E-03  2.655416E-03  2.655416E-03  2.655416E-03  2.655416E-03  2.655416E-03  2.655416E-03  2.655416E-03  2.655416E-03  2.655416E-03
 2.655416E-03  2.655416E-03  2.655416E-03  2.655416E-03  2.655416E-03  2.655416E-03  2.655416E-03  2.655416E-03  2.655416E-03  2.655415E-03


SCALARS Total_Mg++           float 1
LOOKUP_TABLE default
 8.216757E-07  8.216757E-07  8.216757E-07  8.216757E-07  8.216757E-07  8.216757E-07  8.216757E-07  8.216757E-07  8.216757E-07  8.216757E-07
 8.216757E-07  8.216757E-07  8.216757E-07  8.216756E-07  8.216756E-07  8.216756E-07  8.216756E-07  8.216756E-07  8.216756E-07  8.216756E-07


SCALARS Total_Fe++           float 1
LOOKUP_TABLE default
 1.251593E-06  1.251593E-06  1.251593E-06  1.251593E-06  1.251593E-06  1.251593E-06  1.251593E-06  1.251593E-06  1.251593E-06  1.251593E-06
 1.251593E-06  1.251593E-06  1.251593E-06  1.251593E-06  1.251593E-06  1.251592E-06  1.251592E-06  1.251592E-06  1.251592E-06  1.251592E-06


SCALARS Total_Cu++           float 1
LOOKUP_TABLE default
 9.952832E-11  9.952832E-11  9.952832E-11  9.952832E-11  9.952832E-11  9.952832E-11  9.952832E-11  9.952832E-11  9.952832E-11  9.952832E-11
 9.952832E-11  9.952832E-11  9.952832E-11  9.952832E-11  9.952832E-11  9.952832E-11  9.952832E-11  9.952832E-11  9.952832E-11  9.952832E-11


SCALARS Total_SO4--          float 1
LOOKUP_TABLE default
 4.376188E-03  4.376188E-03  4.376188E-03  4.376188E-03  4.376188E-03  4.376188E-03  4.376188E-03  4.376188E-03  4.376188E-03  4.376188E-03
 4.376188E-03  4.376188E-03  4.376188E-03  4.376188E-03  4.376188E-03  4.376188E-03  4.376188E-03  4.376188E-03  4.376188E-03  4.376188E-03


SCALARS Total_Tracer         float 1
LOOKUP_TABLE default
 9.952832E-11  9.952832E-11  9.952832E-11  9.952832E-11  9.952832E-11  9.952832E-11  9.952832E-11  9.952832E-11  9.952832E-11  9.952832E-11
 9.952832E-11  9.952832E-11  9.952832E-11  9.952832E-11  9.952832E-11  9.952832E-11  9.952832E-11  9.952832E-11  9.952832E-11  9.952832E-11


SCALARS Active_Gas_CO2(g)    float 1
LOOKUP_TABLE default
 0.000000E+00  0.000000E+00  0.000000E+00  0.000000E+00  0.000000E+00  0.000000E+00  0.000000E+00  0.000000E+00  0.000000E+00  0.000000E+00
 0.000000E+00  0.000000E+00  0.000000E+00  0.000000E+00  0.000000E+00  0.000000E+00  0.000000E+00  0.000000E+00  0.000000E+00  0.000000E+00


SCALARS HCO3-                float 1
LOOKUP_TABLE default
 1.890426E-04  2.215000E-04  2.568647E-04  2.943104E-04  3.332923E-04  3.734512E-04  4.145514E-04  4.564399E-04  4.990192E-04  5.422304E-04
 5.860412E-04  6.304384E-04  6.754222E-04  7.210030E-04  7.671983E-04  8.140309E-04  8.615277E-04  9.097184E-04  9.586340E-04  1.008175E-03


SCALARS H2SiO4--             float 1
LOOKUP_TABLE default
 4.623069E-13  6.358361E-13  8.568388E-13  1.127379E-12  1.449217E-12  1.823964E-12  2.253218E-12  2.738655E-12  3.282091E-12  3.885523E-12
 4.551161E-12  5.281448E-12  6.079084E-12  6.947035E-12  7.888552E-12  8.907181E-12  1.000678E-11  1.119152E-11  1.246590E-11  1.383101E-11


SCALARS H3SiO4-              float 1
LOOKUP_TABLE default
 1.501455E-06  1.760415E-06  2.043057E-06  2.342870E-06  2.655559E-06  2.978296E-06  3.309226E-06  3.647147E-06  3.991302E-06  4.341241E-06
 4.696727E-06  5.057678E-06  5.424124E-06  5.796176E-06  6.174009E-06  6.557846E-06  6.947942E-06  7.344583E-06  7.748071E-06  8.157632E-06


SCALARS Calcite_VF           float 1
LOOKUP_TABLE default
 1.017476E-02  1.041913E-02  1.061337E-02  1.077638E-02  1.091756E-02  1.104266E-02  1.115557E-02  1.125907E-02  1.135520E-02  1.144550E-02
 1.153119E-02  1.161321E-02  1.169233E-02  1.176918E-02  1.184427E-02  1.191803E-02  1.199084E-02  1.206301E-02  1.213482E-02  1.220632E-02


SCALARS SiO2(am)_VF          float 1
LOOKUP_TABLE default
 6.028078E-04  6.815192E-04  7.471788E-04  8.039270E-04  8.540365E-04  8.989398E-04  9.396124E-04  9.767537E-04  1.010884E-03  1.042403E-03
 1.071623E-03  1.098794E-03  1.124119E-03  1.147765E-03  1.169871E-03  1.190555E-03  1.209916E-03  1.228038E-03  1.244996E-03  1.260815E-03


SCALARS Calcite_Rate         float 1
LOOKUP_TABLE default
-2.171304E-05 -2.421981E-05 -2.584660E-05 -2.697070E-05 -2.778871E-05 -2.841623E-05 -2.892490E-05 -2.936063E-05 -2.975372E-05 -3.012465E-05
-3.048758E-05 -3.085246E-05 -3.122645E-05 -3.161474E-05 -3.202114E-05 -3.244848E-05 -3.289880E-05 -3.337357E-05 -3.387376E-05 -3.439872E-05


SCALARS SiO2(am)_Rate        float 1
LOOKUP_TABLE default
 6.986248E-06  7.328432E-06  7.721460E-06  8.130830E-06  8.541175E-06  8.945412E-06  9.340432E-06  9.725125E-06  1.009940E-05  1.046367E-05
 1.081863E-05  1.116503E-05  1.150368E-05  1.183538E-05  1.216088E-05  1.248088E-05  1.279604E-05  1.310698E-05  1.341424E-05  1.371754E-05


SCALARS Calcite_Area         float 1
LOOKUP_TABLE default
 4.137635E-01  5.249934E-01  6.317776E-01  7.360003E-01  8.384498E-01  9.397395E-01  1.040457E+00  1.141187E+00  1.242509E+00  1.344997E+00
 1.449220E+00  1.555744E+00  1.665140E+00  1.777983E+00  1.894864E+00  2.016391E+00  2.143198E+00  2.275952E+00  2.415357E+00  2.561782E+00


SCALARS SiO2(am)_Area        float 1
LOOKUP_TABLE default
 1.185221E+05  1.137613E+05  1.103215E+05  1.076596E+05  1.055102E+05  1.037228E+05  1.022039E+05  1.008919E+05  9.974372E+04  9.872859E+04
 9.782356E+04  9.701116E+04  9.627784E+04  9.561287E+04  9.500762E+04  9.445508E+04  9.394947E+04  9.348598E+04  9.306058E+04  9.267077E+04


SCALARS Material_ID          int 1
LOOKUP_TABLE default
  1
  1
  1
  1
  1
  1
  1
  1
  1
  1
  1
  1
  1
  1
  1
  1
  1
  1
  1
  1


