# vtk DataFile Version 2.0
PFLOTRAN output
ASCII
DATASET UNSTRUCTURED_GRID
POINTS           84 float
 0.000000E+00  0.000000E+00  0.000000E+00
 7.580000E-03  0.000000E+00  0.000000E+00
 1.516000E-02  0.000000E+00  0.000000E+00
 2.274000E-02  0.000000E+00  0.000000E+00
 3.032000E-02  0.000000E+00  0.000000E+00
 3.790000E-02  0.000000E+00  0.000000E+00
 4.548000E-02  0.000000E+00  0.000000E+00
 5.306000E-02  0.000000E+00  0.000000E+00
 6.064000E-02  0.000000E+00  0.000000E+00
 6.822000E-02  0.000000E+00  0.000000E+00
 7.580000E-02  0.000000E+00  0.000000E+00
 8.338000E-02  0.000000E+00  0.000000E+00
 9.096000E-02  0.000000E+00  0.000000E+00
 9.854000E-02  0.000000E+00  0.000000E+00
 1.061200E-01  0.000000E+00  0.000000E+00
 1.137000E-01  0.000000E+00  0.000000E+00
 1.212800E-01  0.000000E+00  0.000000E+00
 1.288600E-01  0.000000E+00  0.000000E+00
 1.364400E-01  0.000000E+00  0.000000E+00
 1.440200E-01  0.000000E+00  0.000000E+00
 1.516000E-01  0.000000E+00  0.000000E+00
 0.000000E+00  1.125000E-02  0.000000E+00
 7.580000E-03  1.125000E-02  0.000000E+00
 1.516000E-02  1.125000E-02  0.000000E+00
 2.274000E-02  1.125000E-02  0.000000E+00
 3.032000E-02  1.125000E-02  0.000000E+00
 3.790000E-02  1.125000E-02  0.000000E+00
 4.548000E-02  1.125000E-02  0.000000E+00
 5.306000E-02  1.125000E-02  0.000000E+00
 6.064000E-02  1.125000E-02  0.000000E+00
 6.822000E-02  1.125000E-02  0.000000E+00
 7.580000E-02  1.125000E-02  0.000000E+00
 8.338000E-02  1.125000E-02  0.000000E+00
 9.096000E-02  1.125000E-02  0.000000E+00
 9.854000E-02  1.125000E-02  0.000000E+00
 1.061200E-01  1.125000E-02  0.000000E+00
 1.137000E-01  1.125000E-02  0.000000E+00
 1.212800E-01  1.125000E-02  0.000000E+00
 1.288600E-01  1.125000E-02  0.000000E+00
 1.364400E-01  1.125000E-02  0.000000E+00
 1.440200E-01  1.125000E-02  0.000000E+00
 1.516000E-01  1.125000E-02  0.000000E+00
 0.000000E+00  0.000000E+00  1.125000E-02
 7.580000E-03  0.000000E+00  1.125000E-02
 1.516000E-02  0.000000E+00  1.125000E-02
 2.274000E-02  0.000000E+00  1.125000E-02
 3.032000E-02  0.000000E+00  1.125000E-02
 3.790000E-02  0.000000E+00  1.125000E-02
 4.548000E-02  0.000000E+00  1.125000E-02
 5.306000E-02  0.000000E+00  1.125000E-02
 6.064000E-02  0.000000E+00  1.125000E-02
 6.822000E-02  0.000000E+00  1.125000E-02
 7.580000E-02  0.000000E+00  1.125000E-02
 8.338000E-02  0.000000E+00  1.125000E-02
 9.096000E-02  0.000000E+00  1.125000E-02
 9.854000E-02  0.000000E+00  1.125000E-02
 1.061200E-01  0.000000E+00  1.125000E-02
 1.137000E-01  0.000000E+00  1.125000E-02
 1.212800E-01  0.000000E+00  1.125000E-02
 1.288600E-01  0.000000E+00  1.125000E-02
 1.364400E-01  0.000000E+00  1.125000E-02
 1.440200E-01  0.000000E+00  1.125000E-02
 1.516000E-01  0.000000E+00  1.125000E-02
 0.000000E+00  1.125000E-02  1.125000E-02
 7.580000E-03  1.125000E-02  1.125000E-02
 1.516000E-02  1.125000E-02  1.125000E-02
 2.274000E-02  1.125000E-02  1.125000E-02
 3.032000E-02  1.125000E-02  1.125000E-02
 3.790000E-02  1.125000E-02  1.125000E-02
 4.548000E-02  1.125000E-02  1.125000E-02
 5.306000E-02  1.125000E-02  1.125000E-02
 6.064000E-02  1.125000E-02  1.125000E-02
 6.822000E-02  1.125000E-02  1.125000E-02
 7.580000E-02  1.125000E-02  1.125000E-02
 8.338000E-02  1.125000E-02  1.125000E-02
 9.096000E-02  1.125000E-02  1.125000E-02
 9.854000E-02  1.125000E-02  1.125000E-02
 1.061200E-01  1.125000E-02  1.125000E-02
 1.137000E-01  1.125000E-02  1.125000E-02
 1.212800E-01  1.125000E-02  1.125000E-02
 1.288600E-01  1.125000E-02  1.125000E-02
 1.364400E-01  1.125000E-02  1.125000E-02
 1.440200E-01  1.125000E-02  1.125000E-02
 1.516000E-01  1.125000E-02  1.125000E-02
CELLS           20          180
8        0        1       22       21       42       43       64       63
8        1        2       23       22       43       44       65       64
8        2        3       24       23       44       45       66       65
8        3        4       25       24       45       46       67       66
8        4        5       26       25       46       47       68       67
8        5        6       27       26       47       48       69       68
8        6        7       28       27       48       49       70       69
8        7        8       29       28       49       50       71       70
8        8        9       30       29       50       51       72       71
8        9       10       31       30       51       52       73       72
8       10       11       32       31       52       53       74       73
8       11       12       33       32       53       54       75       74
8       12       13       34       33       54       55       76       75
8       13       14       35       34       55       56       77       76
8       14       15       36       35       56       57       78       77
8       15       16       37       36       57       58       79       78
8       16       17       38       37       58       59       80       79
8       17       18       39       38       59       60       81       80
8       18       19       40       39       60       61       82       81
8       19       20       41       40       61       62       83       82

CELL_TYPES           20
12
12
12
12
12
12
12
12
12
12
12
12
12
12
12
12
12
12
12
12

CELL_DATA       20
SCALARS Porosity             float 1
LOOKUP_TABLE default
 9.894608E-01  9.891724E-01  9.889341E-01  9.887283E-01  9.885462E-01  9.883824E-01  9.882331E-01  9.880955E-01  9.879675E-01  9.878476E-01
 9.877345E-01  9.876271E-01  9.875245E-01  9.874261E-01  9.873312E-01  9.872395E-01  9.871504E-01  9.870635E-01  9.869786E-01  9.868955E-01


SCALARS Permeability_X       float 1
LOOKUP_TABLE default
 1.000000E-12  1.000000E-12  1.000000E-12  1.000000E-12  1.000000E-12  1.000000E-12  1.000000E-12  1.000000E-12  1.000000E-12  1.000000E-12
 1.000000E-12  1.000000E-12  1.000000E-12  1.000000E-12  1.000000E-12  1.000000E-12  1.000000E-12  1.000000E-12  1.000000E-12  1.000000E-12


SCALARS Liquid_Pressure      float 1
LOOKUP_TABLE default
 7.500296E+06  7.500281E+06  7.500266E+06  7.500250E+06  7.500235E+06  7.500220E+06  7.500205E+06  7.500190E+06  7.500175E+06  7.500159E+06
 7.500144E+06  7.500129E+06  7.500114E+06  7.500099E+06  7.500083E+06  7.500068E+06  7.500053E+06  7.500038E+06  7.500023E+06  7.500008E+06


SCALARS Temperature          float 1
LOOKUP_TABLE default
 1.500000E+02  1.500000E+02  1.500000E+02  1.500000E+02  1.500000E+02  1.500000E+02  1.499999E+02  1.499999E+02  1.499999E+02  1.499999E+02
 1.499999E+02  1.499999E+02  1.499999E+02  1.499999E+02  1.499999E+02  1.499999E+02  1.499999E+02  1.499999E+02  1.500000E+02  1.500000E+02


SCALARS pH                   float 1
LOOKUP_TABLE default
 4.774643E+00  4.828026E+00  4.879795E+00  4.929002E+00  4.975322E+00  5.018749E+00  5.059431E+00  5.097582E+00  5.133435E+00  5.167217E+00
 5.199138E+00  5.229393E+00  5.258152E+00  5.285568E+00  5.311777E+00  5.336899E+00  5.361038E+00  5.384290E+00  5.406737E+00  5.428398E+00


SCALARS Total_H+             float 1
LOOKUP_TABLE default
-3.483457E-04 -3.750524E-04 -4.036991E-04 -4.337961E-04 -4.650178E-04 -4.971417E-04 -5.300152E-04 -5.635336E-04 -5.976260E-04 -6.322457E-04
-6.673642E-04 -7.029659E-04 -7.390453E-04 -7.756046E-04 -8.126521E-04 -8.502008E-04 -8.882676E-04 -9.268726E-04 -9.660384E-04 -1.005685E-03


SCALARS Total_SiO2(aq)       float 1
LOOKUP_TABLE default
 1.405451E-02  1.404948E-02  1.404426E-02  1.403883E-02  1.403317E-02  1.402730E-02  1.402121E-02  1.401489E-02  1.400837E-02  1.400163E-02
 1.399468E-02  1.398753E-02  1.398017E-02  1.397262E-02  1.396487E-02  1.395694E-02  1.394881E-02  1.394049E-02  1.393199E-02  1.392333E-02


SCALARS Total_Al+++          float 1
LOOKUP_TABLE default
 6.015348E-05  6.015348E-05  6.015348E-05  6.015348E-05  6.015348E-05  6.015348E-05  6.015348E-05  6.015348E-05  6.015348E-05  6.015348E-05
 6.015348E-05  6.015348E-05  6.015348E-05  6.015348E-05  6.015348E-05  6.015348E-05  6.015348E-05  6.015348E-05  6.015348E-05  6.015348E-05


SCALARS Total_Ca++           float 1
LOOKUP_TABLE default
 8.163994E-05  9.499326E-05  1.093166E-04  1.243651E-04  1.399759E-04  1.560379E-04  1.724747E-04  1.892339E-04  2.062801E-04  2.235899E-04
 2.411492E-04  2.589500E-04  2.769897E-04  2.952694E-04  3.137931E-04  3.325675E-04  3.516009E-04  3.709034E-04  3.904863E-04  4.103093E-04


SCALARS Total_Cl-            float 1
LOOKUP_TABLE default
 2.513233E-02  2.513233E-02  2.513233E-02  2.513233E-02  2.513233E-02  2.513233E-02  2.513233E-02  2.513233E-02  2.513233E-02  2.513233E-02
 2.513233E-02  2.513233E-02  2.513233E-02  2.513233E-02  2.513233E-02  2.513233E-02  2.513233E-02  2.513233E-02  2.513233E-02  2.513233E-02


SCALARS Total_CO2(aq)        float 1
LOOKUP_TABLE default
 1.357834E-02  1.359169E-02  1.360602E-02  1.362106E-02  1.363668E-02  1.365274E-02  1.366917E-02  1.368593E-02  1.370298E-02  1.372029E-02
 1.373785E-02  1.375565E-02  1.377369E-02  1.379197E-02  1.381049E-02  1.382927E-02  1.384830E-02  1.386760E-02  1.388719E-02  1.390701E-02


SCALARS Total_Na+            float 1
LOOKUP_TABLE default
 3.122900E-02  3.122900E-02  3.122900E-02  3.122900E-02  3.122900E-02  3.122900E-02  3.122900E-02  3.122900E-02  3.122900E-02  3.122900E-02
 3.122900E-02  3.122900E-02  3.122900E-02  3.122900E-02  3.122900E-02  3.122900E-02  3.122900E-02  3.122900E-02  3.122900E-02  3.122900E-02


SCALARS Total_K+             float 1
LOOKUP_TABLE default
 2.655416E-03  2.655416E-03  2.655416E-03  2.655416E-03  2.655416E-03  2.655416E-03  2.655416E-03  2.655416E-03  2.655416E-03  2.655416E-03
 2.655416E-03  2.655416E-03  2.655416E-03  2.655416E-03  2.655416E-03  2.655416E-03  2.655416E-03  2.655416E-03  2.655416E-03  2.655416E-03


SCALARS Total_Mg++           float 1
LOOKUP_TABLE default
 8.216757E-07  8.216757E-07  8.216757E-07  8.216757E-07  8.216757E-07  8.216757E-07  8.216757E-07  8.216757E-07  8.216757E-07  8.216757E-07
 8.216757E-07  8.216757E-07  8.216757E-07  8.216756E-07  8.216756E-07  8.216756E-07  8.216756E-07  8.216756E-07  8.216756E-07  8.216756E-07


SCALARS Total_Fe++           float 1
LOOKUP_TABLE default
 1.251593E-06  1.251593E-06  1.251593E-06  1.251593E-06  1.251593E-06  1.251593E-06  1.251593E-06  1.251593E-06  1.251593E-06  1.251593E-06
 1.251593E-06  1.251593E-06  1.251593E-06  1.251593E-06  1.251593E-06  1.251592E-06  1.251592E-06  1.251592E-06  1.251592E-06  1.251592E-06


SCALARS Total_Cu++           float 1
LOOKUP_TABLE default
 9.952832E-11  9.952832E-11  9.952832E-11  9.952832E-11  9.952832E-11  9.952832E-11  9.952832E-11  9.952832E-11  9.952832E-11  9.952832E-11
 9.952832E-11  9.952832E-11  9.952832E-11  9.952832E-11  9.952832E-11  9.952832E-11  9.952832E-11  9.952832E-11  9.952832E-11  9.952832E-11


SCALARS Total_SO4--          float 1
LOOKUP_TABLE default
 4.376188E-03  4.376188E-03  4.376188E-03  4.376188E-03  4.376188E-03  4.376188E-03  4.376188E-03  4.376188E-03  4.376188E-03  4.376188E-03
 4.376188E-03  4.376188E-03  4.376188E-03  4.376188E-03  4.376188E-03  4.376188E-03  4.376188E-03  4.376188E-03  4.376188E-03  4.376188E-03


SCALARS Total_Tracer         float 1
LOOKUP_TABLE default
 9.952832E-11  9.952832E-11  9.952832E-11  9.952832E-11  9.952832E-11  9.952832E-11  9.952832E-11  9.952832E-11  9.952832E-11  9.952832E-11
 9.952832E-11  9.952832E-11  9.952832E-11  9.952832E-11  9.952832E-11  9.952832E-11  9.952832E-11  9.952832E-11  9.952832E-11  9.952832E-11


SCALARS Active_Gas_CO2(g)    float 1
LOOKUP_TABLE default
 0.000000E+00  0.000000E+00  0.000000E+00  0.000000E+00  0.000000E+00  0.000000E+00  0.000000E+00  0.000000E+00  0.000000E+00  0.000000E+00
 0.000000E+00  0.000000E+00  0.000000E+00  0.000000E+00  0.000000E+00  0.000000E+00  0.000000E+00  0.000000E+00  0.000000E+00  0.000000E+00


SCALARS HCO3-                float 1
LOOKUP_TABLE default
 1.814737E-04  2.050560E-04  2.308225E-04  2.582796E-04  2.870710E-04  3.169382E-04  3.476945E-04  3.792061E-04  4.113778E-04  4.441433E-04
 4.774576E-04  5.112915E-04  5.456284E-04  5.804610E-04  6.157892E-04  6.516189E-04  6.879606E-04  7.248287E-04  7.622404E-04  8.001150E-04


SCALARS H2SiO4--             float 1
LOOKUP_TABLE default
 4.258258E-13  5.443520E-13  6.907142E-13  8.661432E-13  1.071772E-12  1.308652E-12  1.577800E-12  1.880240E-12  2.217032E-12  2.589301E-12
 2.998255E-12  3.445200E-12  3.931555E-12  4.458862E-12  5.028798E-12  5.643184E-12  6.303996E-12  7.013376E-12  7.773637E-12  8.585066E-12


SCALARS H3SiO4-              float 1
LOOKUP_TABLE default
 1.441031E-06  1.628941E-06  1.834502E-06  2.053822E-06  2.284093E-06  2.523278E-06  2.769908E-06  3.022931E-06  3.281602E-06  3.545404E-06
 3.813989E-06  4.087140E-06  4.364736E-06  4.646734E-06  4.933150E-06  5.224050E-06  5.519539E-06  5.819752E-06  6.124854E-06  6.434209E-06


SCALARS Calcite_VF           float 1
LOOKUP_TABLE default
 9.835215E-03  1.004051E-02  1.020818E-02  1.035206E-02  1.047885E-02  1.059266E-02  1.069633E-02  1.079190E-02  1.088095E-02  1.096469E-02
 1.104408E-02  1.111991E-02  1.119279E-02  1.126328E-02  1.133180E-02  1.139875E-02  1.146443E-02  1.152913E-02  1.159309E-02  1.165638E-02


SCALARS SiO2(am)_VF          float 1
LOOKUP_TABLE default
 6.996068E-04  7.821312E-04  8.523467E-04  9.139571E-04  9.690263E-04  1.018880E-03  1.064439E-03  1.106378E-03  1.145205E-03  1.181317E-03
 1.215031E-03  1.246600E-03  1.276236E-03  1.304113E-03  1.330376E-03  1.355152E-03  1.378545E-03  1.400649E-03  1.421542E-03  1.441247E-03


SCALARS Calcite_Rate         float 1
LOOKUP_TABLE default
-1.595448E-05 -1.776950E-05 -1.905511E-05 -2.001411E-05 -2.075578E-05 -2.134926E-05 -2.184089E-05 -2.226265E-05 -2.263713E-05 -2.298054E-05
-2.330474E-05 -2.361853E-05 -2.392859E-05 -2.424001E-05 -2.455681E-05 -2.488215E-05 -2.521862E-05 -2.556835E-05 -2.593312E-05 -2.631355E-05


SCALARS SiO2(am)_Rate        float 1
LOOKUP_TABLE default
 6.494069E-06  6.698500E-06  6.953581E-06  7.232858E-06  7.522885E-06  7.816299E-06  8.108976E-06  8.398627E-06  8.684043E-06  8.964659E-06
 9.240298E-06  9.511019E-06  9.777020E-06  1.003858E-05  1.029603E-05  1.054970E-05  1.079996E-05  1.104714E-05  1.129160E-05  1.153302E-05


SCALARS Calcite_Area         float 1
LOOKUP_TABLE default
 2.940784E-01  3.617732E-01  4.270996E-01  4.913939E-01  5.551116E-01  6.185238E-01  6.818639E-01  7.453634E-01  8.092592E-01  8.737946E-01
 9.392182E-01  1.005783E+00  1.073749E+00  1.143381E+00  1.214951E+00  1.288741E+00  1.365047E+00  1.444175E+00  1.526450E+00  1.611992E+00


SCALARS SiO2(am)_Area        float 1
LOOKUP_TABLE default
 1.127550E+05  1.086329E+05  1.055595E+05  1.031295E+05  1.011361E+05  9.945798E+04  9.801771E+04  9.676297E+04  9.565674E+04  9.467196E+04
 9.378827E+04  9.299001E+04  9.226489E+04  9.160309E+04  9.099668E+04  9.043916E+04  8.992512E+04  8.945007E+04  8.901019E+04  8.860322E+04


SCALARS Material_ID          int 1
LOOKUP_TABLE default
  1
  1
  1
  1
  1
  1
  1
  1
  1
  1
  1
  1
  1
  1
  1
  1
  1
  1
  1
  1


