# vtk DataFile Version 2.0
PFLOTRAN output
ASCII
DATASET UNSTRUCTURED_GRID
POINTS           84 float
 0.000000E+00  0.000000E+00  0.000000E+00
 7.580000E-03  0.000000E+00  0.000000E+00
 1.516000E-02  0.000000E+00  0.000000E+00
 2.274000E-02  0.000000E+00  0.000000E+00
 3.032000E-02  0.000000E+00  0.000000E+00
 3.790000E-02  0.000000E+00  0.000000E+00
 4.548000E-02  0.000000E+00  0.000000E+00
 5.306000E-02  0.000000E+00  0.000000E+00
 6.064000E-02  0.000000E+00  0.000000E+00
 6.822000E-02  0.000000E+00  0.000000E+00
 7.580000E-02  0.000000E+00  0.000000E+00
 8.338000E-02  0.000000E+00  0.000000E+00
 9.096000E-02  0.000000E+00  0.000000E+00
 9.854000E-02  0.000000E+00  0.000000E+00
 1.061200E-01  0.000000E+00  0.000000E+00
 1.137000E-01  0.000000E+00  0.000000E+00
 1.212800E-01  0.000000E+00  0.000000E+00
 1.288600E-01  0.000000E+00  0.000000E+00
 1.364400E-01  0.000000E+00  0.000000E+00
 1.440200E-01  0.000000E+00  0.000000E+00
 1.516000E-01  0.000000E+00  0.000000E+00
 0.000000E+00  1.125000E-02  0.000000E+00
 7.580000E-03  1.125000E-02  0.000000E+00
 1.516000E-02  1.125000E-02  0.000000E+00
 2.274000E-02  1.125000E-02  0.000000E+00
 3.032000E-02  1.125000E-02  0.000000E+00
 3.790000E-02  1.125000E-02  0.000000E+00
 4.548000E-02  1.125000E-02  0.000000E+00
 5.306000E-02  1.125000E-02  0.000000E+00
 6.064000E-02  1.125000E-02  0.000000E+00
 6.822000E-02  1.125000E-02  0.000000E+00
 7.580000E-02  1.125000E-02  0.000000E+00
 8.338000E-02  1.125000E-02  0.000000E+00
 9.096000E-02  1.125000E-02  0.000000E+00
 9.854000E-02  1.125000E-02  0.000000E+00
 1.061200E-01  1.125000E-02  0.000000E+00
 1.137000E-01  1.125000E-02  0.000000E+00
 1.212800E-01  1.125000E-02  0.000000E+00
 1.288600E-01  1.125000E-02  0.000000E+00
 1.364400E-01  1.125000E-02  0.000000E+00
 1.440200E-01  1.125000E-02  0.000000E+00
 1.516000E-01  1.125000E-02  0.000000E+00
 0.000000E+00  0.000000E+00  1.125000E-02
 7.580000E-03  0.000000E+00  1.125000E-02
 1.516000E-02  0.000000E+00  1.125000E-02
 2.274000E-02  0.000000E+00  1.125000E-02
 3.032000E-02  0.000000E+00  1.125000E-02
 3.790000E-02  0.000000E+00  1.125000E-02
 4.548000E-02  0.000000E+00  1.125000E-02
 5.306000E-02  0.000000E+00  1.125000E-02
 6.064000E-02  0.000000E+00  1.125000E-02
 6.822000E-02  0.000000E+00  1.125000E-02
 7.580000E-02  0.000000E+00  1.125000E-02
 8.338000E-02  0.000000E+00  1.125000E-02
 9.096000E-02  0.000000E+00  1.125000E-02
 9.854000E-02  0.000000E+00  1.125000E-02
 1.061200E-01  0.000000E+00  1.125000E-02
 1.137000E-01  0.000000E+00  1.125000E-02
 1.212800E-01  0.000000E+00  1.125000E-02
 1.288600E-01  0.000000E+00  1.125000E-02
 1.364400E-01  0.000000E+00  1.125000E-02
 1.440200E-01  0.000000E+00  1.125000E-02
 1.516000E-01  0.000000E+00  1.125000E-02
 0.000000E+00  1.125000E-02  1.125000E-02
 7.580000E-03  1.125000E-02  1.125000E-02
 1.516000E-02  1.125000E-02  1.125000E-02
 2.274000E-02  1.125000E-02  1.125000E-02
 3.032000E-02  1.125000E-02  1.125000E-02
 3.790000E-02  1.125000E-02  1.125000E-02
 4.548000E-02  1.125000E-02  1.125000E-02
 5.306000E-02  1.125000E-02  1.125000E-02
 6.064000E-02  1.125000E-02  1.125000E-02
 6.822000E-02  1.125000E-02  1.125000E-02
 7.580000E-02  1.125000E-02  1.125000E-02
 8.338000E-02  1.125000E-02  1.125000E-02
 9.096000E-02  1.125000E-02  1.125000E-02
 9.854000E-02  1.125000E-02  1.125000E-02
 1.061200E-01  1.125000E-02  1.125000E-02
 1.137000E-01  1.125000E-02  1.125000E-02
 1.212800E-01  1.125000E-02  1.125000E-02
 1.288600E-01  1.125000E-02  1.125000E-02
 1.364400E-01  1.125000E-02  1.125000E-02
 1.440200E-01  1.125000E-02  1.125000E-02
 1.516000E-01  1.125000E-02  1.125000E-02
CELLS           20          180
8        0        1       22       21       42       43       64       63
8        1        2       23       22       43       44       65       64
8        2        3       24       23       44       45       66       65
8        3        4       25       24       45       46       67       66
8        4        5       26       25       46       47       68       67
8        5        6       27       26       47       48       69       68
8        6        7       28       27       48       49       70       69
8        7        8       29       28       49       50       71       70
8        8        9       30       29       50       51       72       71
8        9       10       31       30       51       52       73       72
8       10       11       32       31       52       53       74       73
8       11       12       33       32       53       54       75       74
8       12       13       34       33       54       55       76       75
8       13       14       35       34       55       56       77       76
8       14       15       36       35       56       57       78       77
8       15       16       37       36       57       58       79       78
8       16       17       38       37       58       59       80       79
8       17       18       39       38       59       60       81       80
8       18       19       40       39       60       61       82       81
8       19       20       41       40       61       62       83       82

CELL_TYPES           20
12
12
12
12
12
12
12
12
12
12
12
12
12
12
12
12
12
12
12
12

CELL_DATA       20
SCALARS Porosity             float 1
LOOKUP_TABLE default
 9.893237E-01  9.890149E-01  9.887637E-01  9.885493E-01  9.883615E-01  9.881937E-01  9.880416E-01  9.879020E-01  9.877725E-01  9.876513E-01
 9.875370E-01  9.874285E-01  9.873248E-01  9.872251E-01  9.871289E-01  9.870355E-01  9.869447E-01  9.868558E-01  9.867687E-01  9.866832E-01


SCALARS Permeability_X       float 1
LOOKUP_TABLE default
 1.000000E-12  1.000000E-12  1.000000E-12  1.000000E-12  1.000000E-12  1.000000E-12  1.000000E-12  1.000000E-12  1.000000E-12  1.000000E-12
 1.000000E-12  1.000000E-12  1.000000E-12  1.000000E-12  1.000000E-12  1.000000E-12  1.000000E-12  1.000000E-12  1.000000E-12  1.000000E-12


SCALARS Liquid_Pressure      float 1
LOOKUP_TABLE default
 7.500296E+06  7.500281E+06  7.500266E+06  7.500250E+06  7.500235E+06  7.500220E+06  7.500205E+06  7.500190E+06  7.500175E+06  7.500159E+06
 7.500144E+06  7.500129E+06  7.500114E+06  7.500099E+06  7.500083E+06  7.500068E+06  7.500053E+06  7.500038E+06  7.500023E+06  7.500008E+06


SCALARS Temperature          float 1
LOOKUP_TABLE default
 1.500000E+02  1.500000E+02  1.500000E+02  1.500000E+02  1.500000E+02  1.499999E+02  1.499999E+02  1.499999E+02  1.499999E+02  1.499999E+02
 1.499999E+02  1.499999E+02  1.499999E+02  1.499999E+02  1.499999E+02  1.499999E+02  1.499999E+02  1.499999E+02  1.499999E+02  1.500000E+02


SCALARS pH                   float 1
LOOKUP_TABLE default
 4.784370E+00  4.846579E+00  4.905757E+00  4.960989E+00  5.012158E+00  5.059490E+00  5.103338E+00  5.144082E+00  5.182083E+00  5.217668E+00
 5.251125E+00  5.282704E+00  5.312621E+00  5.341063E+00  5.368194E+00  5.394153E+00  5.419062E+00  5.443030E+00  5.466148E+00  5.488442E+00


SCALARS Total_H+             float 1
LOOKUP_TABLE default
-3.530157E-04 -3.849880E-04 -4.192067E-04 -4.550373E-04 -4.920772E-04 -5.300656E-04 -5.688323E-04 -6.082672E-04 -6.483013E-04 -6.888937E-04
-7.300239E-04 -7.716857E-04 -8.138839E-04 -8.566309E-04 -8.999456E-04 -9.438514E-04 -9.883755E-04 -1.033548E-03 -1.079401E-03 -1.125845E-03


SCALARS Total_SiO2(aq)       float 1
LOOKUP_TABLE default
 1.405430E-02  1.404901E-02  1.404347E-02  1.403766E-02  1.403159E-02  1.402525E-02  1.401864E-02  1.401177E-02  1.400466E-02  1.399729E-02
 1.398968E-02  1.398184E-02  1.397376E-02  1.396545E-02  1.395692E-02  1.394817E-02  1.393921E-02  1.393002E-02  1.392063E-02  1.391105E-02


SCALARS Total_Al+++          float 1
LOOKUP_TABLE default
 6.015348E-05  6.015348E-05  6.015348E-05  6.015348E-05  6.015348E-05  6.015348E-05  6.015348E-05  6.015348E-05  6.015348E-05  6.015348E-05
 6.015348E-05  6.015348E-05  6.015348E-05  6.015348E-05  6.015348E-05  6.015348E-05  6.015348E-05  6.015348E-05  6.015348E-05  6.015348E-05


SCALARS Total_Ca++           float 1
LOOKUP_TABLE default
 8.397491E-05  9.996107E-05  1.170704E-04  1.349857E-04  1.535057E-04  1.724999E-04  1.918832E-04  2.116007E-04  2.316177E-04  2.519139E-04
 2.724790E-04  2.933099E-04  3.144090E-04  3.357825E-04  3.574398E-04  3.793928E-04  4.016548E-04  4.242411E-04  4.471677E-04  4.703898E-04


SCALARS Total_Cl-            float 1
LOOKUP_TABLE default
 2.513233E-02  2.513233E-02  2.513233E-02  2.513233E-02  2.513233E-02  2.513233E-02  2.513233E-02  2.513233E-02  2.513233E-02  2.513233E-02
 2.513233E-02  2.513233E-02  2.513233E-02  2.513233E-02  2.513233E-02  2.513233E-02  2.513233E-02  2.513233E-02  2.513233E-02  2.513233E-02


SCALARS Total_CO2(aq)        float 1
LOOKUP_TABLE default
 1.358067E-02  1.359666E-02  1.361377E-02  1.363169E-02  1.365021E-02  1.366920E-02  1.368858E-02  1.370830E-02  1.372832E-02  1.374861E-02
 1.376918E-02  1.379001E-02  1.381111E-02  1.383248E-02  1.385414E-02  1.387609E-02  1.389835E-02  1.392094E-02  1.394387E-02  1.396709E-02


SCALARS Total_Na+            float 1
LOOKUP_TABLE default
 3.122900E-02  3.122900E-02  3.122900E-02  3.122900E-02  3.122900E-02  3.122900E-02  3.122900E-02  3.122900E-02  3.122900E-02  3.122900E-02
 3.122900E-02  3.122900E-02  3.122900E-02  3.122900E-02  3.122900E-02  3.122900E-02  3.122900E-02  3.122900E-02  3.122900E-02  3.122900E-02


SCALARS Total_K+             float 1
LOOKUP_TABLE default
 2.655416E-03  2.655416E-03  2.655416E-03  2.655416E-03  2.655416E-03  2.655416E-03  2.655416E-03  2.655416E-03  2.655416E-03  2.655416E-03
 2.655416E-03  2.655416E-03  2.655416E-03  2.655416E-03  2.655416E-03  2.655416E-03  2.655416E-03  2.655416E-03  2.655416E-03  2.655416E-03


SCALARS Total_Mg++           float 1
LOOKUP_TABLE default
 8.216757E-07  8.216757E-07  8.216757E-07  8.216757E-07  8.216757E-07  8.216757E-07  8.216757E-07  8.216757E-07  8.216757E-07  8.216757E-07
 8.216757E-07  8.216757E-07  8.216757E-07  8.216756E-07  8.216756E-07  8.216756E-07  8.216756E-07  8.216756E-07  8.216756E-07  8.216756E-07


SCALARS Total_Fe++           float 1
LOOKUP_TABLE default
 1.251593E-06  1.251593E-06  1.251593E-06  1.251593E-06  1.251593E-06  1.251593E-06  1.251593E-06  1.251593E-06  1.251593E-06  1.251593E-06
 1.251593E-06  1.251593E-06  1.251593E-06  1.251593E-06  1.251593E-06  1.251592E-06  1.251592E-06  1.251592E-06  1.251592E-06  1.251592E-06


SCALARS Total_Cu++           float 1
LOOKUP_TABLE default
 9.952832E-11  9.952832E-11  9.952832E-11  9.952832E-11  9.952832E-11  9.952832E-11  9.952832E-11  9.952832E-11  9.952832E-11  9.952832E-11
 9.952832E-11  9.952832E-11  9.952832E-11  9.952832E-11  9.952832E-11  9.952832E-11  9.952832E-11  9.952832E-11  9.952832E-11  9.952832E-11


SCALARS Total_SO4--          float 1
LOOKUP_TABLE default
 4.376188E-03  4.376188E-03  4.376188E-03  4.376188E-03  4.376188E-03  4.376188E-03  4.376188E-03  4.376188E-03  4.376188E-03  4.376188E-03
 4.376188E-03  4.376188E-03  4.376188E-03  4.376188E-03  4.376188E-03  4.376188E-03  4.376188E-03  4.376188E-03  4.376188E-03  4.376188E-03


SCALARS Total_Tracer         float 1
LOOKUP_TABLE default
 9.952832E-11  9.952832E-11  9.952832E-11  9.952832E-11  9.952832E-11  9.952832E-11  9.952832E-11  9.952832E-11  9.952832E-11  9.952832E-11
 9.952832E-11  9.952832E-11  9.952832E-11  9.952832E-11  9.952832E-11  9.952832E-11  9.952832E-11  9.952832E-11  9.952832E-11  9.952832E-11


SCALARS Active_Gas_CO2(g)    float 1
LOOKUP_TABLE default
 0.000000E+00  0.000000E+00  0.000000E+00  0.000000E+00  0.000000E+00  0.000000E+00  0.000000E+00  0.000000E+00  0.000000E+00  0.000000E+00
 0.000000E+00  0.000000E+00  0.000000E+00  0.000000E+00  0.000000E+00  0.000000E+00  0.000000E+00  0.000000E+00  0.000000E+00  0.000000E+00


SCALARS HCO3-                float 1
LOOKUP_TABLE default
 1.855605E-04  2.139445E-04  2.449275E-04  2.778383E-04  3.122153E-04  3.477410E-04  3.841981E-04  4.214387E-04  4.593640E-04  4.979098E-04
 5.370365E-04  5.767230E-04  6.169611E-04  6.577529E-04  6.991080E-04  7.410417E-04  7.835739E-04  8.267281E-04  8.705303E-04  9.148905E-04


SCALARS H2SiO4--             float 1
LOOKUP_TABLE default
 4.453346E-13  5.929064E-13  7.784314E-13  1.003599E-12  1.269895E-12  1.578683E-12  1.931295E-12  2.329100E-12  2.773551E-12  3.266222E-12
 3.808835E-12  4.403275E-12  5.051615E-12  5.756123E-12  6.519282E-12  7.343798E-12  8.232617E-12  9.188933E-12  1.021620E-11  1.131514E-11


SCALARS H3SiO4-              float 1
LOOKUP_TABLE default
 1.473652E-06  1.699988E-06  1.947414E-06  2.210640E-06  2.486030E-06  2.771081E-06  3.064084E-06  3.363878E-06  3.669692E-06  3.981028E-06
 4.297590E-06  4.619226E-06  4.945891E-06  5.277625E-06  5.614531E-06  5.956758E-06  6.304499E-06  6.657976E-06  7.017436E-06  7.382177E-06


SCALARS Calcite_VF           float 1
LOOKUP_TABLE default
 1.002925E-02  1.025680E-02  1.043989E-02  1.059505E-02  1.073043E-02  1.085104E-02  1.096030E-02  1.106067E-02  1.115399E-02  1.124166E-02
 1.132480E-02  1.140428E-02  1.148082E-02  1.155501E-02  1.162733E-02  1.169820E-02  1.176797E-02  1.183694E-02  1.190538E-02  1.197335E-02


SCALARS SiO2(am)_VF          float 1
LOOKUP_TABLE default
 6.415338E-04  7.219750E-04  7.896554E-04  8.485308E-04  9.007887E-04  9.478204E-04  9.905818E-04  1.029764E-03  1.065886E-03  1.099347E-03
 1.130462E-03  1.159484E-03  1.186622E-03  1.212044E-03  1.235894E-03  1.258293E-03  1.279344E-03  1.299134E-03  1.317741E-03  1.335187E-03


SCALARS Calcite_Rate         float 1
LOOKUP_TABLE default
-1.906926E-05 -2.127091E-05 -2.275822E-05 -2.382227E-05 -2.461798E-05 -2.523969E-05 -2.574796E-05 -2.618287E-05 -2.657166E-05 -2.693323E-05
-2.728098E-05 -2.762458E-05 -2.797114E-05 -2.832599E-05 -2.869318E-05 -2.907585E-05 -2.947644E-05 -2.989691E-05 -3.033877E-05 -3.080216E-05


SCALARS SiO2(am)_Rate        float 1
LOOKUP_TABLE default
 6.770229E-06  7.048027E-06  7.377802E-06  7.728352E-06  8.084859E-06  8.439878E-06  8.789687E-06  9.132550E-06  9.467811E-06  9.795414E-06
 1.011563E-05  1.042890E-05  1.073576E-05  1.103676E-05  1.133246E-05  1.162342E-05  1.191016E-05  1.219319E-05  1.247296E-05  1.274919E-05


SCALARS Calcite_Area         float 1
LOOKUP_TABLE default
 3.579244E-01  4.482559E-01  5.352422E-01  6.204986E-01  7.046293E-01  7.880581E-01  8.711813E-01  9.543967E-01  1.038106E+00  1.122713E+00
 1.208626E+00  1.296251E+00  1.386004E+00  1.478304E+00  1.573582E+00  1.672285E+00  1.774877E+00  1.881845E+00  1.993704E+00  2.110698E+00


SCALARS SiO2(am)_Area        float 1
LOOKUP_TABLE default
 1.160749E+05  1.115839E+05  1.082956E+05  1.057280E+05  1.036412E+05  1.018970E+05  1.004088E+05  9.911874E+04  9.798632E+04  9.698221E+04
 9.608451E+04  9.527650E+04  9.454512E+04  9.388000E+04  9.327279E+04  9.271668E+04  9.220603E+04  9.173615E+04  9.130310E+04  9.090448E+04


SCALARS Material_ID          int 1
LOOKUP_TABLE default
  1
  1
  1
  1
  1
  1
  1
  1
  1
  1
  1
  1
  1
  1
  1
  1
  1
  1
  1
  1


