# vtk DataFile Version 2.0
PFLOTRAN output
ASCII
DATASET UNSTRUCTURED_GRID
POINTS           84 float
 0.000000E+00  0.000000E+00  0.000000E+00
 7.580000E-03  0.000000E+00  0.000000E+00
 1.516000E-02  0.000000E+00  0.000000E+00
 2.274000E-02  0.000000E+00  0.000000E+00
 3.032000E-02  0.000000E+00  0.000000E+00
 3.790000E-02  0.000000E+00  0.000000E+00
 4.548000E-02  0.000000E+00  0.000000E+00
 5.306000E-02  0.000000E+00  0.000000E+00
 6.064000E-02  0.000000E+00  0.000000E+00
 6.822000E-02  0.000000E+00  0.000000E+00
 7.580000E-02  0.000000E+00  0.000000E+00
 8.338000E-02  0.000000E+00  0.000000E+00
 9.096000E-02  0.000000E+00  0.000000E+00
 9.854000E-02  0.000000E+00  0.000000E+00
 1.061200E-01  0.000000E+00  0.000000E+00
 1.137000E-01  0.000000E+00  0.000000E+00
 1.212800E-01  0.000000E+00  0.000000E+00
 1.288600E-01  0.000000E+00  0.000000E+00
 1.364400E-01  0.000000E+00  0.000000E+00
 1.440200E-01  0.000000E+00  0.000000E+00
 1.516000E-01  0.000000E+00  0.000000E+00
 0.000000E+00  1.125000E-02  0.000000E+00
 7.580000E-03  1.125000E-02  0.000000E+00
 1.516000E-02  1.125000E-02  0.000000E+00
 2.274000E-02  1.125000E-02  0.000000E+00
 3.032000E-02  1.125000E-02  0.000000E+00
 3.790000E-02  1.125000E-02  0.000000E+00
 4.548000E-02  1.125000E-02  0.000000E+00
 5.306000E-02  1.125000E-02  0.000000E+00
 6.064000E-02  1.125000E-02  0.000000E+00
 6.822000E-02  1.125000E-02  0.000000E+00
 7.580000E-02  1.125000E-02  0.000000E+00
 8.338000E-02  1.125000E-02  0.000000E+00
 9.096000E-02  1.125000E-02  0.000000E+00
 9.854000E-02  1.125000E-02  0.000000E+00
 1.061200E-01  1.125000E-02  0.000000E+00
 1.137000E-01  1.125000E-02  0.000000E+00
 1.212800E-01  1.125000E-02  0.000000E+00
 1.288600E-01  1.125000E-02  0.000000E+00
 1.364400E-01  1.125000E-02  0.000000E+00
 1.440200E-01  1.125000E-02  0.000000E+00
 1.516000E-01  1.125000E-02  0.000000E+00
 0.000000E+00  0.000000E+00  1.125000E-02
 7.580000E-03  0.000000E+00  1.125000E-02
 1.516000E-02  0.000000E+00  1.125000E-02
 2.274000E-02  0.000000E+00  1.125000E-02
 3.032000E-02  0.000000E+00  1.125000E-02
 3.790000E-02  0.000000E+00  1.125000E-02
 4.548000E-02  0.000000E+00  1.125000E-02
 5.306000E-02  0.000000E+00  1.125000E-02
 6.064000E-02  0.000000E+00  1.125000E-02
 6.822000E-02  0.000000E+00  1.125000E-02
 7.580000E-02  0.000000E+00  1.125000E-02
 8.338000E-02  0.000000E+00  1.125000E-02
 9.096000E-02  0.000000E+00  1.125000E-02
 9.854000E-02  0.000000E+00  1.125000E-02
 1.061200E-01  0.000000E+00  1.125000E-02
 1.137000E-01  0.000000E+00  1.125000E-02
 1.212800E-01  0.000000E+00  1.125000E-02
 1.288600E-01  0.000000E+00  1.125000E-02
 1.364400E-01  0.000000E+00  1.125000E-02
 1.440200E-01  0.000000E+00  1.125000E-02
 1.516000E-01  0.000000E+00  1.125000E-02
 0.000000E+00  1.125000E-02  1.125000E-02
 7.580000E-03  1.125000E-02  1.125000E-02
 1.516000E-02  1.125000E-02  1.125000E-02
 2.274000E-02  1.125000E-02  1.125000E-02
 3.032000E-02  1.125000E-02  1.125000E-02
 3.790000E-02  1.125000E-02  1.125000E-02
 4.548000E-02  1.125000E-02  1.125000E-02
 5.306000E-02  1.125000E-02  1.125000E-02
 6.064000E-02  1.125000E-02  1.125000E-02
 6.822000E-02  1.125000E-02  1.125000E-02
 7.580000E-02  1.125000E-02  1.125000E-02
 8.338000E-02  1.125000E-02  1.125000E-02
 9.096000E-02  1.125000E-02  1.125000E-02
 9.854000E-02  1.125000E-02  1.125000E-02
 1.061200E-01  1.125000E-02  1.125000E-02
 1.137000E-01  1.125000E-02  1.125000E-02
 1.212800E-01  1.125000E-02  1.125000E-02
 1.288600E-01  1.125000E-02  1.125000E-02
 1.364400E-01  1.125000E-02  1.125000E-02
 1.440200E-01  1.125000E-02  1.125000E-02
 1.516000E-01  1.125000E-02  1.125000E-02
CELLS           20          180
8        0        1       22       21       42       43       64       63
8        1        2       23       22       43       44       65       64
8        2        3       24       23       44       45       66       65
8        3        4       25       24       45       46       67       66
8        4        5       26       25       46       47       68       67
8        5        6       27       26       47       48       69       68
8        6        7       28       27       48       49       70       69
8        7        8       29       28       49       50       71       70
8        8        9       30       29       50       51       72       71
8        9       10       31       30       51       52       73       72
8       10       11       32       31       52       53       74       73
8       11       12       33       32       53       54       75       74
8       12       13       34       33       54       55       76       75
8       13       14       35       34       55       56       77       76
8       14       15       36       35       56       57       78       77
8       15       16       37       36       57       58       79       78
8       16       17       38       37       58       59       80       79
8       17       18       39       38       59       60       81       80
8       18       19       40       39       60       61       82       81
8       19       20       41       40       61       62       83       82

CELL_TYPES           20
12
12
12
12
12
12
12
12
12
12
12
12
12
12
12
12
12
12
12
12

CELL_DATA       20
SCALARS Porosity             float 1
LOOKUP_TABLE default
 9.878121E-01  9.873666E-01  9.870636E-01  9.868332E-01  9.866454E-01  9.864848E-01  9.863425E-01  9.862131E-01  9.860931E-01  9.859801E-01
 9.858725E-01  9.857693E-01  9.856697E-01  9.855733E-01  9.854798E-01  9.853892E-01  9.853016E-01  9.852172E-01  9.851360E-01  9.850587E-01


SCALARS Permeability_X       float 1
LOOKUP_TABLE default
 1.000000E-12  1.000000E-12  1.000000E-12  1.000000E-12  1.000000E-12  1.000000E-12  1.000000E-12  1.000000E-12  1.000000E-12  1.000000E-12
 1.000000E-12  1.000000E-12  1.000000E-12  1.000000E-12  1.000000E-12  1.000000E-12  1.000000E-12  1.000000E-12  1.000000E-12  1.000000E-12


SCALARS Liquid_Pressure      float 1
LOOKUP_TABLE default
 7.500296E+06  7.500281E+06  7.500266E+06  7.500250E+06  7.500235E+06  7.500220E+06  7.500205E+06  7.500190E+06  7.500175E+06  7.500159E+06
 7.500144E+06  7.500129E+06  7.500114E+06  7.500099E+06  7.500083E+06  7.500068E+06  7.500053E+06  7.500038E+06  7.500023E+06  7.500008E+06


SCALARS Temperature          float 1
LOOKUP_TABLE default
 1.500000E+02  1.499999E+02  1.499999E+02  1.499998E+02  1.499998E+02  1.499998E+02  1.499997E+02  1.499997E+02  1.499997E+02  1.499996E+02
 1.499996E+02  1.499996E+02  1.499996E+02  1.499996E+02  1.499996E+02  1.499996E+02  1.499997E+02  1.499997E+02  1.499998E+02  1.499999E+02


SCALARS pH                   float 1
LOOKUP_TABLE default
 4.936583E+00  5.091665E+00  5.208140E+00  5.300282E+00  5.376182E+00  5.440628E+00  5.496619E+00  5.546129E+00  5.590517E+00  5.630741E+00
 5.667501E+00  5.701310E+00  5.732554E+00  5.761524E+00  5.788439E+00  5.813468E+00  5.836736E+00  5.858340E+00  5.878358E+00  5.896808E+00


SCALARS Total_H+             float 1
LOOKUP_TABLE default
-4.387072E-04 -5.581615E-04 -6.777275E-04 -7.961656E-04 -9.132236E-04 -1.028957E-03 -1.143503E-03 -1.256999E-03 -1.369545E-03 -1.481189E-03
-1.591917E-03 -1.701650E-03 -1.810241E-03 -1.917473E-03 -2.023065E-03 -2.126671E-03 -2.227894E-03 -2.326294E-03 -2.421405E-03 -2.512543E-03


SCALARS Total_SiO2(aq)       float 1
LOOKUP_TABLE default
 1.405166E-02  1.404267E-02  1.403256E-02  1.402147E-02  1.400950E-02  1.399671E-02  1.398318E-02  1.396896E-02  1.395408E-02  1.393859E-02
 1.392252E-02  1.390590E-02  1.388875E-02  1.387111E-02  1.385299E-02  1.383442E-02  1.381543E-02  1.379605E-02  1.377630E-02  1.375626E-02


SCALARS Total_Al+++          float 1
LOOKUP_TABLE default
 6.015348E-05  6.015348E-05  6.015348E-05  6.015348E-05  6.015348E-05  6.015348E-05  6.015349E-05  6.015349E-05  6.015349E-05  6.015349E-05
 6.015349E-05  6.015349E-05  6.015349E-05  6.015350E-05  6.015350E-05  6.015350E-05  6.015350E-05  6.015350E-05  6.015350E-05  6.015350E-05


SCALARS Total_Ca++           float 1
LOOKUP_TABLE default
 1.268207E-04  1.865478E-04  2.463308E-04  3.055498E-04  3.640789E-04  4.219454E-04  4.792185E-04  5.359665E-04  5.922396E-04  6.480616E-04
 7.034257E-04  7.582923E-04  8.125877E-04  8.662038E-04  9.189995E-04  9.708026E-04  1.021414E-03  1.070614E-03  1.118170E-03  1.163738E-03


SCALARS Total_Cl-            float 1
LOOKUP_TABLE default
 2.513233E-02  2.513233E-02  2.513233E-02  2.513233E-02  2.513233E-02  2.513233E-02  2.513233E-02  2.513233E-02  2.513233E-02  2.513233E-02
 2.513233E-02  2.513233E-02  2.513233E-02  2.513233E-02  2.513233E-02  2.513233E-02  2.513233E-02  2.513233E-02  2.513233E-02  2.513233E-02


SCALARS Total_CO2(aq)        float 1
LOOKUP_TABLE default
 1.362352E-02  1.368325E-02  1.374303E-02  1.380225E-02  1.386078E-02  1.391865E-02  1.397592E-02  1.403267E-02  1.408894E-02  1.414476E-02
 1.420013E-02  1.425499E-02  1.430929E-02  1.436290E-02  1.441570E-02  1.446750E-02  1.451811E-02  1.456731E-02  1.461487E-02  1.466044E-02


SCALARS Total_Na+            float 1
LOOKUP_TABLE default
 3.122900E-02  3.122900E-02  3.122900E-02  3.122900E-02  3.122900E-02  3.122900E-02  3.122900E-02  3.122900E-02  3.122900E-02  3.122900E-02
 3.122900E-02  3.122900E-02  3.122900E-02  3.122900E-02  3.122900E-02  3.122900E-02  3.122900E-02  3.122900E-02  3.122900E-02  3.122900E-02


SCALARS Total_K+             float 1
LOOKUP_TABLE default
 2.655416E-03  2.655416E-03  2.655416E-03  2.655416E-03  2.655416E-03  2.655416E-03  2.655416E-03  2.655416E-03  2.655416E-03  2.655416E-03
 2.655416E-03  2.655416E-03  2.655416E-03  2.655416E-03  2.655416E-03  2.655416E-03  2.655415E-03  2.655415E-03  2.655415E-03  2.655415E-03


SCALARS Total_Mg++           float 1
LOOKUP_TABLE default
 8.216757E-07  8.216757E-07  8.216757E-07  8.216757E-07  8.216757E-07  8.216757E-07  8.216757E-07  8.216757E-07  8.216757E-07  8.216757E-07
 8.216757E-07  8.216757E-07  8.216757E-07  8.216756E-07  8.216756E-07  8.216756E-07  8.216756E-07  8.216756E-07  8.216756E-07  8.216756E-07


SCALARS Total_Fe++           float 1
LOOKUP_TABLE default
 1.251593E-06  1.251593E-06  1.251593E-06  1.251593E-06  1.251593E-06  1.251593E-06  1.251593E-06  1.251593E-06  1.251593E-06  1.251593E-06
 1.251593E-06  1.251593E-06  1.251593E-06  1.251592E-06  1.251592E-06  1.251592E-06  1.251592E-06  1.251592E-06  1.251592E-06  1.251592E-06


SCALARS Total_Cu++           float 1
LOOKUP_TABLE default
 9.952832E-11  9.952832E-11  9.952832E-11  9.952832E-11  9.952832E-11  9.952832E-11  9.952832E-11  9.952832E-11  9.952832E-11  9.952832E-11
 9.952832E-11  9.952832E-11  9.952832E-11  9.952832E-11  9.952832E-11  9.952832E-11  9.952832E-11  9.952832E-11  9.952831E-11  9.952831E-11


SCALARS Total_SO4--          float 1
LOOKUP_TABLE default
 4.376188E-03  4.376188E-03  4.376188E-03  4.376188E-03  4.376188E-03  4.376188E-03  4.376188E-03  4.376188E-03  4.376188E-03  4.376188E-03
 4.376188E-03  4.376188E-03  4.376188E-03  4.376188E-03  4.376188E-03  4.376188E-03  4.376188E-03  4.376188E-03  4.376188E-03  4.376188E-03


SCALARS Total_Tracer         float 1
LOOKUP_TABLE default
 9.952832E-11  9.952832E-11  9.952832E-11  9.952832E-11  9.952832E-11  9.952832E-11  9.952832E-11  9.952832E-11  9.952832E-11  9.952832E-11
 9.952832E-11  9.952832E-11  9.952832E-11  9.952832E-11  9.952832E-11  9.952832E-11  9.952832E-11  9.952832E-11  9.952831E-11  9.952831E-11


SCALARS Active_Gas_CO2(g)    float 1
LOOKUP_TABLE default
 0.000000E+00  0.000000E+00  0.000000E+00  0.000000E+00  0.000000E+00  0.000000E+00  0.000000E+00  0.000000E+00  0.000000E+00  0.000000E+00
 0.000000E+00  0.000000E+00  0.000000E+00  0.000000E+00  0.000000E+00  0.000000E+00  0.000000E+00  0.000000E+00  0.000000E+00  0.000000E+00


SCALARS HCO3-                float 1
LOOKUP_TABLE default
 2.627882E-04  3.741415E-04  4.872900E-04  6.000470E-04  7.117668E-04  8.223120E-04  9.317139E-04  1.040044E-03  1.147362E-03  1.253688E-03
 1.358993E-03  1.463189E-03  1.566130E-03  1.667607E-03  1.767353E-03  1.865044E-03  1.960312E-03  2.052753E-03  2.141941E-03  2.227249E-03


SCALARS H2SiO4--             float 1
LOOKUP_TABLE default
 8.977548E-13  1.833308E-12  3.133795E-12  4.788637E-12  6.789600E-12  9.131485E-12  1.181146E-11  1.482808E-11  1.818020E-11  2.186589E-11
 2.588128E-11  3.021937E-11  3.486884E-11  3.981287E-11  4.502808E-11  5.048368E-11  5.614096E-11  6.195330E-11  6.786665E-11  7.380670E-11


SCALARS H3SiO4-              float 1
LOOKUP_TABLE default
 2.091905E-06  2.987934E-06  3.904443E-06  4.823744E-06  5.740381E-06  6.652993E-06  7.561608E-06  8.466616E-06  9.368314E-06  1.026670E-05
 1.116132E-05  1.205126E-05  1.293503E-05  1.381057E-05  1.467526E-05  1.552593E-05  1.635890E-05  1.717013E-05  1.795530E-05  1.870824E-05


SCALARS Calcite_VF           float 1
LOOKUP_TABLE default
 1.182809E-02  1.221990E-02  1.248317E-02  1.268191E-02  1.284336E-02  1.298150E-02  1.310430E-02  1.321666E-02  1.332174E-02  1.342160E-02
 1.351766E-02  1.361084E-02  1.370174E-02  1.379069E-02  1.387784E-02  1.396321E-02  1.404665E-02  1.412797E-02  1.420686E-02  1.428283E-02


SCALARS SiO2(am)_VF          float 1
LOOKUP_TABLE default
 3.326772E-04  3.856177E-04  4.257350E-04  4.581507E-04  4.852902E-04  5.085088E-04  5.286457E-04  5.462590E-04  5.617408E-04  5.753782E-04
 5.873891E-04  5.979445E-04  6.071822E-04  6.152163E-04  6.221441E-04  6.280504E-04  6.330108E-04  6.370946E-04  6.403664E-04  6.428835E-04


SCALARS Calcite_Rate         float 1
LOOKUP_TABLE default
-7.619479E-05 -7.936779E-05 -7.936362E-05 -7.853874E-05 -7.755084E-05 -7.660398E-05 -7.575317E-05 -7.499745E-05 -7.431253E-05 -7.366346E-05
-7.300989E-05 -7.230849E-05 -7.151448E-05 -7.058281E-05 -6.946976E-05 -6.813469E-05 -6.654237E-05 -6.466544E-05 -6.248703E-05 -6.000988E-05


SCALARS SiO2(am)_Rate        float 1
LOOKUP_TABLE default
 1.029126E-05  1.196210E-05  1.343389E-05  1.473650E-05  1.590616E-05  1.697103E-05  1.795176E-05  1.886342E-05  1.971710E-05  2.052092E-05
 2.128083E-05  2.200105E-05  2.268449E-05  2.333296E-05  2.394739E-05  2.452802E-05  2.507453E-05  2.558620E-05  2.606207E-05  2.650008E-05


SCALARS Calcite_Area         float 1
LOOKUP_TABLE default
 1.897166E+00  2.628636E+00  3.251362E+00  3.805195E+00  4.315686E+00  4.800362E+00  5.271771E+00  5.739220E+00  6.209788E+00  6.688940E+00
 7.180892E+00  7.688813E+00  8.214930E+00  8.760553E+00  9.326064E+00  9.910874E+00  1.051339E+01  1.113099E+01  1.176002E+01  1.239451E+01


SCALARS SiO2(am)_Area        float 1
LOOKUP_TABLE default
 1.447885E+05  1.378352E+05  1.333697E+05  1.301554E+05  1.276906E+05  1.257247E+05  1.241153E+05  1.227742E+05  1.216431E+05  1.206815E+05
 1.198604E+05  1.191581E+05  1.185578E+05  1.180465E+05  1.176137E+05  1.172508E+05  1.169506E+05  1.167070E+05  1.165145E+05  1.163687E+05


SCALARS Material_ID          int 1
LOOKUP_TABLE default
  1
  1
  1
  1
  1
  1
  1
  1
  1
  1
  1
  1
  1
  1
  1
  1
  1
  1
  1
  1


