# vtk DataFile Version 2.0
PFLOTRAN output
ASCII
DATASET UNSTRUCTURED_GRID
POINTS           84 float
 0.000000E+00  0.000000E+00  0.000000E+00
 7.580000E-03  0.000000E+00  0.000000E+00
 1.516000E-02  0.000000E+00  0.000000E+00
 2.274000E-02  0.000000E+00  0.000000E+00
 3.032000E-02  0.000000E+00  0.000000E+00
 3.790000E-02  0.000000E+00  0.000000E+00
 4.548000E-02  0.000000E+00  0.000000E+00
 5.306000E-02  0.000000E+00  0.000000E+00
 6.064000E-02  0.000000E+00  0.000000E+00
 6.822000E-02  0.000000E+00  0.000000E+00
 7.580000E-02  0.000000E+00  0.000000E+00
 8.338000E-02  0.000000E+00  0.000000E+00
 9.096000E-02  0.000000E+00  0.000000E+00
 9.854000E-02  0.000000E+00  0.000000E+00
 1.061200E-01  0.000000E+00  0.000000E+00
 1.137000E-01  0.000000E+00  0.000000E+00
 1.212800E-01  0.000000E+00  0.000000E+00
 1.288600E-01  0.000000E+00  0.000000E+00
 1.364400E-01  0.000000E+00  0.000000E+00
 1.440200E-01  0.000000E+00  0.000000E+00
 1.516000E-01  0.000000E+00  0.000000E+00
 0.000000E+00  1.125000E-02  0.000000E+00
 7.580000E-03  1.125000E-02  0.000000E+00
 1.516000E-02  1.125000E-02  0.000000E+00
 2.274000E-02  1.125000E-02  0.000000E+00
 3.032000E-02  1.125000E-02  0.000000E+00
 3.790000E-02  1.125000E-02  0.000000E+00
 4.548000E-02  1.125000E-02  0.000000E+00
 5.306000E-02  1.125000E-02  0.000000E+00
 6.064000E-02  1.125000E-02  0.000000E+00
 6.822000E-02  1.125000E-02  0.000000E+00
 7.580000E-02  1.125000E-02  0.000000E+00
 8.338000E-02  1.125000E-02  0.000000E+00
 9.096000E-02  1.125000E-02  0.000000E+00
 9.854000E-02  1.125000E-02  0.000000E+00
 1.061200E-01  1.125000E-02  0.000000E+00
 1.137000E-01  1.125000E-02  0.000000E+00
 1.212800E-01  1.125000E-02  0.000000E+00
 1.288600E-01  1.125000E-02  0.000000E+00
 1.364400E-01  1.125000E-02  0.000000E+00
 1.440200E-01  1.125000E-02  0.000000E+00
 1.516000E-01  1.125000E-02  0.000000E+00
 0.000000E+00  0.000000E+00  1.125000E-02
 7.580000E-03  0.000000E+00  1.125000E-02
 1.516000E-02  0.000000E+00  1.125000E-02
 2.274000E-02  0.000000E+00  1.125000E-02
 3.032000E-02  0.000000E+00  1.125000E-02
 3.790000E-02  0.000000E+00  1.125000E-02
 4.548000E-02  0.000000E+00  1.125000E-02
 5.306000E-02  0.000000E+00  1.125000E-02
 6.064000E-02  0.000000E+00  1.125000E-02
 6.822000E-02  0.000000E+00  1.125000E-02
 7.580000E-02  0.000000E+00  1.125000E-02
 8.338000E-02  0.000000E+00  1.125000E-02
 9.096000E-02  0.000000E+00  1.125000E-02
 9.854000E-02  0.000000E+00  1.125000E-02
 1.061200E-01  0.000000E+00  1.125000E-02
 1.137000E-01  0.000000E+00  1.125000E-02
 1.212800E-01  0.000000E+00  1.125000E-02
 1.288600E-01  0.000000E+00  1.125000E-02
 1.364400E-01  0.000000E+00  1.125000E-02
 1.440200E-01  0.000000E+00  1.125000E-02
 1.516000E-01  0.000000E+00  1.125000E-02
 0.000000E+00  1.125000E-02  1.125000E-02
 7.580000E-03  1.125000E-02  1.125000E-02
 1.516000E-02  1.125000E-02  1.125000E-02
 2.274000E-02  1.125000E-02  1.125000E-02
 3.032000E-02  1.125000E-02  1.125000E-02
 3.790000E-02  1.125000E-02  1.125000E-02
 4.548000E-02  1.125000E-02  1.125000E-02
 5.306000E-02  1.125000E-02  1.125000E-02
 6.064000E-02  1.125000E-02  1.125000E-02
 6.822000E-02  1.125000E-02  1.125000E-02
 7.580000E-02  1.125000E-02  1.125000E-02
 8.338000E-02  1.125000E-02  1.125000E-02
 9.096000E-02  1.125000E-02  1.125000E-02
 9.854000E-02  1.125000E-02  1.125000E-02
 1.061200E-01  1.125000E-02  1.125000E-02
 1.137000E-01  1.125000E-02  1.125000E-02
 1.212800E-01  1.125000E-02  1.125000E-02
 1.288600E-01  1.125000E-02  1.125000E-02
 1.364400E-01  1.125000E-02  1.125000E-02
 1.440200E-01  1.125000E-02  1.125000E-02
 1.516000E-01  1.125000E-02  1.125000E-02
CELLS           20          180
8        0        1       22       21       42       43       64       63
8        1        2       23       22       43       44       65       64
8        2        3       24       23       44       45       66       65
8        3        4       25       24       45       46       67       66
8        4        5       26       25       46       47       68       67
8        5        6       27       26       47       48       69       68
8        6        7       28       27       48       49       70       69
8        7        8       29       28       49       50       71       70
8        8        9       30       29       50       51       72       71
8        9       10       31       30       51       52       73       72
8       10       11       32       31       52       53       74       73
8       11       12       33       32       53       54       75       74
8       12       13       34       33       54       55       76       75
8       13       14       35       34       55       56       77       76
8       14       15       36       35       56       57       78       77
8       15       16       37       36       57       58       79       78
8       16       17       38       37       58       59       80       79
8       17       18       39       38       59       60       81       80
8       18       19       40       39       60       61       82       81
8       19       20       41       40       61       62       83       82

CELL_TYPES           20
12
12
12
12
12
12
12
12
12
12
12
12
12
12
12
12
12
12
12
12

CELL_DATA       20
SCALARS Porosity             float 1
LOOKUP_TABLE default
 9.886171E-01  9.882222E-01  9.879265E-01  9.876888E-01  9.874888E-01  9.873151E-01  9.871603E-01  9.870195E-01  9.868893E-01  9.867674E-01
 9.866518E-01  9.865411E-01  9.864344E-01  9.863308E-01  9.862296E-01  9.861303E-01  9.860325E-01  9.859359E-01  9.858403E-01  9.857457E-01


SCALARS Permeability_X       float 1
LOOKUP_TABLE default
 1.000000E-12  1.000000E-12  1.000000E-12  1.000000E-12  1.000000E-12  1.000000E-12  1.000000E-12  1.000000E-12  1.000000E-12  1.000000E-12
 1.000000E-12  1.000000E-12  1.000000E-12  1.000000E-12  1.000000E-12  1.000000E-12  1.000000E-12  1.000000E-12  1.000000E-12  1.000000E-12


SCALARS Liquid_Pressure      float 1
LOOKUP_TABLE default
 7.500296E+06  7.500281E+06  7.500266E+06  7.500250E+06  7.500235E+06  7.500220E+06  7.500205E+06  7.500190E+06  7.500175E+06  7.500159E+06
 7.500144E+06  7.500129E+06  7.500114E+06  7.500099E+06  7.500083E+06  7.500068E+06  7.500053E+06  7.500038E+06  7.500023E+06  7.500008E+06


SCALARS Temperature          float 1
LOOKUP_TABLE default
 1.500000E+02  1.500000E+02  1.499999E+02  1.499999E+02  1.499999E+02  1.499999E+02  1.499998E+02  1.499998E+02  1.499998E+02  1.499998E+02
 1.499998E+02  1.499998E+02  1.499997E+02  1.499997E+02  1.499997E+02  1.499998E+02  1.499998E+02  1.499998E+02  1.499999E+02  1.499999E+02


SCALARS pH                   float 1
LOOKUP_TABLE default
 4.845595E+00  4.954384E+00  5.046796E+00  5.125660E+00  5.193891E+00  5.253807E+00  5.307151E+00  5.355223E+00  5.399003E+00  5.439237E+00
 5.476504E+00  5.511258E+00  5.543859E+00  5.574595E+00  5.603699E+00  5.631360E+00  5.657732E+00  5.682937E+00  5.707077E+00  5.730171E+00


SCALARS Total_H+             float 1
LOOKUP_TABLE default
-3.844526E-04 -4.505373E-04 -5.195048E-04 -5.900137E-04 -6.614316E-04 -7.334611E-04 -8.059745E-04 -8.789347E-04 -9.523531E-04 -1.026267E-03
-1.100727E-03 -1.175787E-03 -1.251498E-03 -1.327906E-03 -1.405046E-03 -1.482941E-03 -1.561596E-03 -1.640997E-03 -1.721103E-03 -1.801639E-03


SCALARS Total_SiO2(aq)       float 1
LOOKUP_TABLE default
 1.405320E-02  1.404640E-02  1.403899E-02  1.403101E-02  1.402247E-02  1.401342E-02  1.400388E-02  1.399387E-02  1.398341E-02  1.397253E-02
 1.396123E-02  1.394954E-02  1.393745E-02  1.392499E-02  1.391216E-02  1.389897E-02  1.388543E-02  1.387154E-02  1.385732E-02  1.384280E-02


SCALARS Total_Al+++          float 1
LOOKUP_TABLE default
 6.015348E-05  6.015348E-05  6.015348E-05  6.015348E-05  6.015348E-05  6.015348E-05  6.015348E-05  6.015348E-05  6.015348E-05  6.015348E-05
 6.015349E-05  6.015349E-05  6.015349E-05  6.015349E-05  6.015349E-05  6.015349E-05  6.015349E-05  6.015349E-05  6.015349E-05  6.015349E-05


SCALARS Total_Ca++           float 1
LOOKUP_TABLE default
 9.969338E-05  1.327357E-04  1.672195E-04  2.024739E-04  2.381829E-04  2.741976E-04  3.104543E-04  3.469344E-04  3.836436E-04  4.206008E-04
 4.578308E-04  4.953605E-04  5.332160E-04  5.714199E-04  6.099901E-04  6.489376E-04  6.882653E-04  7.279655E-04  7.680188E-04  8.082867E-04


SCALARS Total_Cl-            float 1
LOOKUP_TABLE default
 2.513233E-02  2.513233E-02  2.513233E-02  2.513233E-02  2.513233E-02  2.513233E-02  2.513233E-02  2.513233E-02  2.513233E-02  2.513233E-02
 2.513233E-02  2.513233E-02  2.513233E-02  2.513233E-02  2.513233E-02  2.513233E-02  2.513233E-02  2.513233E-02  2.513233E-02  2.513233E-02


SCALARS Total_CO2(aq)        float 1
LOOKUP_TABLE default
 1.359639E-02  1.362944E-02  1.366392E-02  1.369917E-02  1.373488E-02  1.377090E-02  1.380715E-02  1.384363E-02  1.388034E-02  1.391730E-02
 1.395453E-02  1.399206E-02  1.402992E-02  1.406812E-02  1.410669E-02  1.414564E-02  1.418496E-02  1.422466E-02  1.426472E-02  1.430499E-02


SCALARS Total_Na+            float 1
LOOKUP_TABLE default
 3.122900E-02  3.122900E-02  3.122900E-02  3.122900E-02  3.122900E-02  3.122900E-02  3.122900E-02  3.122900E-02  3.122900E-02  3.122900E-02
 3.122900E-02  3.122900E-02  3.122900E-02  3.122900E-02  3.122900E-02  3.122900E-02  3.122900E-02  3.122900E-02  3.122900E-02  3.122900E-02


SCALARS Total_K+             float 1
LOOKUP_TABLE default
 2.655416E-03  2.655416E-03  2.655416E-03  2.655416E-03  2.655416E-03  2.655416E-03  2.655416E-03  2.655416E-03  2.655416E-03  2.655416E-03
 2.655416E-03  2.655416E-03  2.655416E-03  2.655416E-03  2.655416E-03  2.655416E-03  2.655416E-03  2.655415E-03  2.655415E-03  2.655415E-03


SCALARS Total_Mg++           float 1
LOOKUP_TABLE default
 8.216757E-07  8.216757E-07  8.216757E-07  8.216757E-07  8.216757E-07  8.216757E-07  8.216757E-07  8.216757E-07  8.216757E-07  8.216757E-07
 8.216757E-07  8.216757E-07  8.216757E-07  8.216756E-07  8.216756E-07  8.216756E-07  8.216756E-07  8.216756E-07  8.216756E-07  8.216756E-07


SCALARS Total_Fe++           float 1
LOOKUP_TABLE default
 1.251593E-06  1.251593E-06  1.251593E-06  1.251593E-06  1.251593E-06  1.251593E-06  1.251593E-06  1.251593E-06  1.251593E-06  1.251593E-06
 1.251593E-06  1.251593E-06  1.251593E-06  1.251593E-06  1.251592E-06  1.251592E-06  1.251592E-06  1.251592E-06  1.251592E-06  1.251592E-06


SCALARS Total_Cu++           float 1
LOOKUP_TABLE default
 9.952832E-11  9.952832E-11  9.952832E-11  9.952832E-11  9.952832E-11  9.952832E-11  9.952832E-11  9.952832E-11  9.952832E-11  9.952832E-11
 9.952832E-11  9.952832E-11  9.952832E-11  9.952832E-11  9.952832E-11  9.952832E-11  9.952832E-11  9.952832E-11  9.952832E-11  9.952831E-11


SCALARS Total_SO4--          float 1
LOOKUP_TABLE default
 4.376188E-03  4.376188E-03  4.376188E-03  4.376188E-03  4.376188E-03  4.376188E-03  4.376188E-03  4.376188E-03  4.376188E-03  4.376188E-03
 4.376188E-03  4.376188E-03  4.376188E-03  4.376188E-03  4.376188E-03  4.376188E-03  4.376188E-03  4.376188E-03  4.376188E-03  4.376188E-03


SCALARS Total_Tracer         float 1
LOOKUP_TABLE default
 9.952832E-11  9.952832E-11  9.952832E-11  9.952832E-11  9.952832E-11  9.952832E-11  9.952832E-11  9.952832E-11  9.952832E-11  9.952832E-11
 9.952832E-11  9.952832E-11  9.952832E-11  9.952832E-11  9.952832E-11  9.952832E-11  9.952832E-11  9.952832E-11  9.952832E-11  9.952831E-11


SCALARS Active_Gas_CO2(g)    float 1
LOOKUP_TABLE default
 0.000000E+00  0.000000E+00  0.000000E+00  0.000000E+00  0.000000E+00  0.000000E+00  0.000000E+00  0.000000E+00  0.000000E+00  0.000000E+00
 0.000000E+00  0.000000E+00  0.000000E+00  0.000000E+00  0.000000E+00  0.000000E+00  0.000000E+00  0.000000E+00  0.000000E+00  0.000000E+00


SCALARS HCO3-                float 1
LOOKUP_TABLE default
 2.134638E-04  2.736829E-04  3.378402E-04  4.041808E-04  4.718183E-04  5.403017E-04  6.094070E-04  6.790332E-04  7.491474E-04  8.197542E-04
 8.908784E-04  9.625535E-04  1.034814E-03  1.107693E-03  1.181212E-03  1.255383E-03  1.330204E-03  1.405651E-03  1.481681E-03  1.558024E-03


SCALARS H2SiO4--             float 1
LOOKUP_TABLE default
 5.904015E-13  9.741226E-13  1.490453E-12  2.142461E-12  2.932434E-12  3.862791E-12  4.936469E-12  6.157086E-12  7.528985E-12  9.057223E-12
 1.074752E-11  1.260621E-11  1.464009E-11  1.685635E-11  1.926239E-11  2.186559E-11  2.467308E-11  2.769142E-11  3.092615E-11  3.437215E-11


SCALARS H3SiO4-              float 1
LOOKUP_TABLE default
 1.696646E-06  2.178623E-06  2.693888E-06  3.228576E-06  3.775661E-06  4.331564E-06  4.894509E-06  5.463706E-06  6.038918E-06  6.620216E-06
 7.207843E-06  7.802123E-06  8.403399E-06  9.011990E-06  9.628155E-06  1.025206E-05  1.088374E-05  1.152309E-05  1.216978E-05  1.282157E-05


SCALARS Calcite_VF           float 1
LOOKUP_TABLE default
 1.091740E-02  1.124282E-02  1.148364E-02  1.167573E-02  1.183649E-02  1.197590E-02  1.210025E-02  1.221370E-02  1.231916E-02  1.241872E-02
 1.251391E-02  1.260590E-02  1.269558E-02  1.278365E-02  1.287064E-02  1.295698E-02  1.304300E-02  1.312893E-02  1.321496E-02  1.330098E-02


SCALARS SiO2(am)_VF          float 1
LOOKUP_TABLE default
 4.521139E-04  5.202511E-04  5.746178E-04  6.201237E-04  6.593112E-04  6.936954E-04  7.242600E-04  7.516821E-04  7.764487E-04  7.989227E-04
 8.193814E-04  8.380423E-04  8.550789E-04  8.706321E-04  8.848180E-04  8.977333E-04  9.094601E-04  9.200685E-04  9.296193E-04  9.381474E-04


SCALARS Calcite_Rate         float 1
LOOKUP_TABLE default
-4.003215E-05 -4.394135E-05 -4.583131E-05 -4.682762E-05 -4.740302E-05 -4.778070E-05 -4.807387E-05 -4.834263E-05 -4.861945E-05 -4.892154E-05
-4.925713E-05 -4.962879E-05 -5.003526E-05 -5.047239E-05 -5.093359E-05 -5.141007E-05 -5.189083E-05 -5.236254E-05 -5.280947E-05 -5.321303E-05


SCALARS SiO2(am)_Rate        float 1
LOOKUP_TABLE default
 8.244193E-06  9.048490E-06  9.853878E-06  1.062315E-05  1.134938E-05  1.203448E-05  1.268279E-05  1.329895E-05  1.388728E-05  1.445153E-05
 1.499494E-05  1.552023E-05  1.602969E-05  1.652521E-05  1.700834E-05  1.748034E-05  1.794217E-05  1.839452E-05  1.883784E-05  1.927120E-05


SCALARS Calcite_Area         float 1
LOOKUP_TABLE default
 8.420828E-01  1.130668E+00  1.398038E+00  1.650432E+00  1.892237E+00  2.127180E+00  2.358500E+00  2.589048E+00  2.821362E+00  3.057749E+00
 3.300339E+00  3.551143E+00  3.812089E+00  4.085049E+00  4.371864E+00  4.674352E+00  4.994310E+00  5.333505E+00  5.693650E+00  6.075433E+00


SCALARS SiO2(am)_Area        float 1
LOOKUP_TABLE default
 1.305406E+05  1.245620E+05  1.204996E+05  1.174767E+05  1.151025E+05  1.131700E+05  1.115571E+05  1.101857E+05  1.090037E+05  1.079742E+05
 1.070703E+05  1.062721E+05  1.055641E+05  1.049343E+05  1.043731E+05  1.038729E+05  1.034273E+05  1.030311E+05  1.026800E+05  1.023709E+05


SCALARS Material_ID          int 1
LOOKUP_TABLE default
  1
  1
  1
  1
  1
  1
  1
  1
  1
  1
  1
  1
  1
  1
  1
  1
  1
  1
  1
  1


