# vtk DataFile Version 2.0
PFLOTRAN output
ASCII
DATASET UNSTRUCTURED_GRID
POINTS           84 float
 0.000000E+00  0.000000E+00  0.000000E+00
 7.580000E-03  0.000000E+00  0.000000E+00
 1.516000E-02  0.000000E+00  0.000000E+00
 2.274000E-02  0.000000E+00  0.000000E+00
 3.032000E-02  0.000000E+00  0.000000E+00
 3.790000E-02  0.000000E+00  0.000000E+00
 4.548000E-02  0.000000E+00  0.000000E+00
 5.306000E-02  0.000000E+00  0.000000E+00
 6.064000E-02  0.000000E+00  0.000000E+00
 6.822000E-02  0.000000E+00  0.000000E+00
 7.580000E-02  0.000000E+00  0.000000E+00
 8.338000E-02  0.000000E+00  0.000000E+00
 9.096000E-02  0.000000E+00  0.000000E+00
 9.854000E-02  0.000000E+00  0.000000E+00
 1.061200E-01  0.000000E+00  0.000000E+00
 1.137000E-01  0.000000E+00  0.000000E+00
 1.212800E-01  0.000000E+00  0.000000E+00
 1.288600E-01  0.000000E+00  0.000000E+00
 1.364400E-01  0.000000E+00  0.000000E+00
 1.440200E-01  0.000000E+00  0.000000E+00
 1.516000E-01  0.000000E+00  0.000000E+00
 0.000000E+00  1.125000E-02  0.000000E+00
 7.580000E-03  1.125000E-02  0.000000E+00
 1.516000E-02  1.125000E-02  0.000000E+00
 2.274000E-02  1.125000E-02  0.000000E+00
 3.032000E-02  1.125000E-02  0.000000E+00
 3.790000E-02  1.125000E-02  0.000000E+00
 4.548000E-02  1.125000E-02  0.000000E+00
 5.306000E-02  1.125000E-02  0.000000E+00
 6.064000E-02  1.125000E-02  0.000000E+00
 6.822000E-02  1.125000E-02  0.000000E+00
 7.580000E-02  1.125000E-02  0.000000E+00
 8.338000E-02  1.125000E-02  0.000000E+00
 9.096000E-02  1.125000E-02  0.000000E+00
 9.854000E-02  1.125000E-02  0.000000E+00
 1.061200E-01  1.125000E-02  0.000000E+00
 1.137000E-01  1.125000E-02  0.000000E+00
 1.212800E-01  1.125000E-02  0.000000E+00
 1.288600E-01  1.125000E-02  0.000000E+00
 1.364400E-01  1.125000E-02  0.000000E+00
 1.440200E-01  1.125000E-02  0.000000E+00
 1.516000E-01  1.125000E-02  0.000000E+00
 0.000000E+00  0.000000E+00  1.125000E-02
 7.580000E-03  0.000000E+00  1.125000E-02
 1.516000E-02  0.000000E+00  1.125000E-02
 2.274000E-02  0.000000E+00  1.125000E-02
 3.032000E-02  0.000000E+00  1.125000E-02
 3.790000E-02  0.000000E+00  1.125000E-02
 4.548000E-02  0.000000E+00  1.125000E-02
 5.306000E-02  0.000000E+00  1.125000E-02
 6.064000E-02  0.000000E+00  1.125000E-02
 6.822000E-02  0.000000E+00  1.125000E-02
 7.580000E-02  0.000000E+00  1.125000E-02
 8.338000E-02  0.000000E+00  1.125000E-02
 9.096000E-02  0.000000E+00  1.125000E-02
 9.854000E-02  0.000000E+00  1.125000E-02
 1.061200E-01  0.000000E+00  1.125000E-02
 1.137000E-01  0.000000E+00  1.125000E-02
 1.212800E-01  0.000000E+00  1.125000E-02
 1.288600E-01  0.000000E+00  1.125000E-02
 1.364400E-01  0.000000E+00  1.125000E-02
 1.440200E-01  0.000000E+00  1.125000E-02
 1.516000E-01  0.000000E+00  1.125000E-02
 0.000000E+00  1.125000E-02  1.125000E-02
 7.580000E-03  1.125000E-02  1.125000E-02
 1.516000E-02  1.125000E-02  1.125000E-02
 2.274000E-02  1.125000E-02  1.125000E-02
 3.032000E-02  1.125000E-02  1.125000E-02
 3.790000E-02  1.125000E-02  1.125000E-02
 4.548000E-02  1.125000E-02  1.125000E-02
 5.306000E-02  1.125000E-02  1.125000E-02
 6.064000E-02  1.125000E-02  1.125000E-02
 6.822000E-02  1.125000E-02  1.125000E-02
 7.580000E-02  1.125000E-02  1.125000E-02
 8.338000E-02  1.125000E-02  1.125000E-02
 9.096000E-02  1.125000E-02  1.125000E-02
 9.854000E-02  1.125000E-02  1.125000E-02
 1.061200E-01  1.125000E-02  1.125000E-02
 1.137000E-01  1.125000E-02  1.125000E-02
 1.212800E-01  1.125000E-02  1.125000E-02
 1.288600E-01  1.125000E-02  1.125000E-02
 1.364400E-01  1.125000E-02  1.125000E-02
 1.440200E-01  1.125000E-02  1.125000E-02
 1.516000E-01  1.125000E-02  1.125000E-02
CELLS           20          180
8        0        1       22       21       42       43       64       63
8        1        2       23       22       43       44       65       64
8        2        3       24       23       44       45       66       65
8        3        4       25       24       45       46       67       66
8        4        5       26       25       46       47       68       67
8        5        6       27       26       47       48       69       68
8        6        7       28       27       48       49       70       69
8        7        8       29       28       49       50       71       70
8        8        9       30       29       50       51       72       71
8        9       10       31       30       51       52       73       72
8       10       11       32       31       52       53       74       73
8       11       12       33       32       53       54       75       74
8       12       13       34       33       54       55       76       75
8       13       14       35       34       55       56       77       76
8       14       15       36       35       56       57       78       77
8       15       16       37       36       57       58       79       78
8       16       17       38       37       58       59       80       79
8       17       18       39       38       59       60       81       80
8       18       19       40       39       60       61       82       81
8       19       20       41       40       61       62       83       82

CELL_TYPES           20
12
12
12
12
12
12
12
12
12
12
12
12
12
12
12
12
12
12
12
12

CELL_DATA       20
SCALARS Porosity             float 1
LOOKUP_TABLE default
 9.896228E-01  9.893599E-01  9.891389E-01  9.889452E-01  9.887719E-01  9.886144E-01  9.884698E-01  9.883358E-01  9.882107E-01  9.880931E-01
 9.879819E-01  9.878763E-01  9.877754E-01  9.876788E-01  9.875857E-01  9.874959E-01  9.874089E-01  9.873244E-01  9.872420E-01  9.871617E-01


SCALARS Permeability_X       float 1
LOOKUP_TABLE default
 1.000000E-12  1.000000E-12  1.000000E-12  1.000000E-12  1.000000E-12  1.000000E-12  1.000000E-12  1.000000E-12  1.000000E-12  1.000000E-12
 1.000000E-12  1.000000E-12  1.000000E-12  1.000000E-12  1.000000E-12  1.000000E-12  1.000000E-12  1.000000E-12  1.000000E-12  1.000000E-12


SCALARS Liquid_Pressure      float 1
LOOKUP_TABLE default
 7.500296E+06  7.500281E+06  7.500266E+06  7.500250E+06  7.500235E+06  7.500220E+06  7.500205E+06  7.500190E+06  7.500175E+06  7.500159E+06
 7.500144E+06  7.500129E+06  7.500114E+06  7.500099E+06  7.500083E+06  7.500068E+06  7.500053E+06  7.500038E+06  7.500023E+06  7.500008E+06


SCALARS Temperature          float 1
LOOKUP_TABLE default
 1.500000E+02  1.500000E+02  1.500000E+02  1.500000E+02  1.500000E+02  1.500000E+02  1.500000E+02  1.500000E+02  1.500000E+02  1.499999E+02
 1.499999E+02  1.499999E+02  1.499999E+02  1.499999E+02  1.499999E+02  1.499999E+02  1.499999E+02  1.500000E+02  1.500000E+02  1.500000E+02


SCALARS pH                   float 1
LOOKUP_TABLE default
 4.763955E+00  4.807177E+00  4.849959E+00  4.891482E+00  4.931334E+00  4.969345E+00  5.005489E+00  5.039820E+00  5.072432E+00  5.103443E+00
 5.132972E+00  5.161140E+00  5.188060E+00  5.213839E+00  5.238575E+00  5.262358E+00  5.285268E+00  5.307379E+00  5.328759E+00  5.349415E+00


SCALARS Total_H+             float 1
LOOKUP_TABLE default
-3.433097E-04 -3.643012E-04 -3.868364E-04 -4.105800E-04 -4.352973E-04 -4.608188E-04 -4.870211E-04 -5.138138E-04 -5.411314E-04 -5.689266E-04
-5.971662E-04 -6.258279E-04 -6.548977E-04 -6.843684E-04 -7.142381E-04 -7.445090E-04 -7.751872E-04 -8.062816E-04 -8.378035E-04 -8.696819E-04


SCALARS Total_SiO2(aq)       float 1
LOOKUP_TABLE default
 1.405476E-02  1.405004E-02  1.404519E-02  1.404018E-02  1.403501E-02  1.402968E-02  1.402417E-02  1.401849E-02  1.401265E-02  1.400663E-02
 1.400045E-02  1.399409E-02  1.398758E-02  1.398090E-02  1.397407E-02  1.396708E-02  1.395993E-02  1.395262E-02  1.394516E-02  1.393757E-02


SCALARS Total_Al+++          float 1
LOOKUP_TABLE default
 6.015348E-05  6.015348E-05  6.015348E-05  6.015348E-05  6.015348E-05  6.015348E-05  6.015348E-05  6.015348E-05  6.015348E-05  6.015348E-05
 6.015348E-05  6.015348E-05  6.015348E-05  6.015348E-05  6.015348E-05  6.015348E-05  6.015348E-05  6.015348E-05  6.015348E-05  6.015348E-05


SCALARS Total_Ca++           float 1
LOOKUP_TABLE default
 7.912192E-05  8.961768E-05  1.008853E-04  1.127571E-04  1.251157E-04  1.378765E-04  1.509776E-04  1.643740E-04  1.780328E-04  1.919303E-04
 2.060502E-04  2.203810E-04  2.349159E-04  2.496513E-04  2.645861E-04  2.797216E-04  2.950607E-04  3.106079E-04  3.263688E-04  3.423080E-04


SCALARS Total_Cl-            float 1
LOOKUP_TABLE default
 2.513233E-02  2.513233E-02  2.513233E-02  2.513233E-02  2.513233E-02  2.513233E-02  2.513233E-02  2.513233E-02  2.513233E-02  2.513233E-02
 2.513233E-02  2.513233E-02  2.513233E-02  2.513233E-02  2.513233E-02  2.513233E-02  2.513233E-02  2.513233E-02  2.513233E-02  2.513233E-02


SCALARS Total_CO2(aq)        float 1
LOOKUP_TABLE default
 1.357582E-02  1.358632E-02  1.359759E-02  1.360946E-02  1.362182E-02  1.363458E-02  1.364768E-02  1.366107E-02  1.367473E-02  1.368863E-02
 1.370275E-02  1.371708E-02  1.373162E-02  1.374635E-02  1.376129E-02  1.377642E-02  1.379176E-02  1.380731E-02  1.382307E-02  1.383901E-02


SCALARS Total_Na+            float 1
LOOKUP_TABLE default
 3.122900E-02  3.122900E-02  3.122900E-02  3.122900E-02  3.122900E-02  3.122900E-02  3.122900E-02  3.122900E-02  3.122900E-02  3.122900E-02
 3.122900E-02  3.122900E-02  3.122900E-02  3.122900E-02  3.122900E-02  3.122900E-02  3.122900E-02  3.122900E-02  3.122900E-02  3.122900E-02


SCALARS Total_K+             float 1
LOOKUP_TABLE default
 2.655416E-03  2.655416E-03  2.655416E-03  2.655416E-03  2.655416E-03  2.655416E-03  2.655416E-03  2.655416E-03  2.655416E-03  2.655416E-03
 2.655416E-03  2.655416E-03  2.655416E-03  2.655416E-03  2.655416E-03  2.655416E-03  2.655416E-03  2.655416E-03  2.655416E-03  2.655416E-03


SCALARS Total_Mg++           float 1
LOOKUP_TABLE default
 8.216757E-07  8.216757E-07  8.216757E-07  8.216757E-07  8.216757E-07  8.216757E-07  8.216757E-07  8.216757E-07  8.216757E-07  8.216757E-07
 8.216757E-07  8.216757E-07  8.216757E-07  8.216756E-07  8.216756E-07  8.216756E-07  8.216756E-07  8.216756E-07  8.216756E-07  8.216756E-07


SCALARS Total_Fe++           float 1
LOOKUP_TABLE default
 1.251593E-06  1.251593E-06  1.251593E-06  1.251593E-06  1.251593E-06  1.251593E-06  1.251593E-06  1.251593E-06  1.251593E-06  1.251593E-06
 1.251593E-06  1.251593E-06  1.251593E-06  1.251593E-06  1.251593E-06  1.251593E-06  1.251592E-06  1.251592E-06  1.251592E-06  1.251592E-06


SCALARS Total_Cu++           float 1
LOOKUP_TABLE default
 9.952832E-11  9.952832E-11  9.952832E-11  9.952832E-11  9.952832E-11  9.952832E-11  9.952832E-11  9.952832E-11  9.952832E-11  9.952832E-11
 9.952832E-11  9.952832E-11  9.952832E-11  9.952832E-11  9.952832E-11  9.952832E-11  9.952832E-11  9.952832E-11  9.952832E-11  9.952832E-11


SCALARS Total_SO4--          float 1
LOOKUP_TABLE default
 4.376188E-03  4.376188E-03  4.376188E-03  4.376188E-03  4.376188E-03  4.376188E-03  4.376188E-03  4.376188E-03  4.376188E-03  4.376188E-03
 4.376188E-03  4.376188E-03  4.376188E-03  4.376188E-03  4.376188E-03  4.376188E-03  4.376188E-03  4.376188E-03  4.376188E-03  4.376188E-03


SCALARS Total_Tracer         float 1
LOOKUP_TABLE default
 9.952832E-11  9.952832E-11  9.952832E-11  9.952832E-11  9.952832E-11  9.952832E-11  9.952832E-11  9.952832E-11  9.952832E-11  9.952832E-11
 9.952832E-11  9.952832E-11  9.952832E-11  9.952832E-11  9.952832E-11  9.952832E-11  9.952832E-11  9.952832E-11  9.952832E-11  9.952832E-11


SCALARS Active_Gas_CO2(g)    float 1
LOOKUP_TABLE default
 0.000000E+00  0.000000E+00  0.000000E+00  0.000000E+00  0.000000E+00  0.000000E+00  0.000000E+00  0.000000E+00  0.000000E+00  0.000000E+00
 0.000000E+00  0.000000E+00  0.000000E+00  0.000000E+00  0.000000E+00  0.000000E+00  0.000000E+00  0.000000E+00  0.000000E+00  0.000000E+00


SCALARS HCO3-                float 1
LOOKUP_TABLE default
 1.770863E-04  1.955040E-04  2.156045E-04  2.370696E-04  2.596580E-04  2.831844E-04  3.075068E-04  3.325165E-04  3.581313E-04  3.842894E-04
 4.109450E-04  4.380651E-04  4.656263E-04  4.936135E-04  5.220177E-04  5.508354E-04  5.800671E-04  6.097170E-04  6.397920E-04  6.702209E-04


SCALARS H2SiO4--             float 1
LOOKUP_TABLE default
 4.053750E-13  4.945195E-13  6.020472E-13  7.287128E-13  8.752597E-13  1.042397E-12  1.230812E-12  1.441183E-12  1.674198E-12  1.930571E-12
 2.211049E-12  2.516424E-12  2.847543E-12  3.205312E-12  3.590706E-12  4.004773E-12  4.448641E-12  4.923523E-12  5.430724E-12  5.970181E-12


SCALARS H3SiO4-              float 1
LOOKUP_TABLE default
 1.406022E-06  1.552643E-06  1.712805E-06  1.883998E-06  2.064319E-06  2.252308E-06  2.446845E-06  2.647077E-06  2.852356E-06  3.062198E-06
 3.276247E-06  3.494246E-06  3.716019E-06  3.941452E-06  4.170484E-06  4.403095E-06  4.639301E-06  4.879146E-06  5.122699E-06  5.369397E-06


SCALARS Calcite_VF           float 1
LOOKUP_TABLE default
 9.587459E-03  9.765109E-03  9.912664E-03  1.004117E-02  1.015582E-02  1.025977E-02  1.035517E-02  1.044364E-02  1.052638E-02  1.060437E-02
 1.067838E-02  1.074905E-02  1.081691E-02  1.088241E-02  1.094592E-02  1.100776E-02  1.106822E-02  1.112754E-02  1.118593E-02  1.124344E-02


SCALARS SiO2(am)_VF          float 1
LOOKUP_TABLE default
 7.866232E-04  8.713968E-04  9.445263E-04  1.009395E-03  1.067899E-03  1.121266E-03  1.170361E-03  1.215824E-03  1.258144E-03  1.297707E-03
 1.334822E-03  1.369744E-03  1.402682E-03  1.433811E-03  1.463282E-03  1.491222E-03  1.517740E-03  1.542932E-03  1.566881E-03  1.589604E-03


SCALARS Calcite_Rate         float 1
LOOKUP_TABLE default
-1.259520E-05 -1.396859E-05 -1.499241E-05 -1.579261E-05 -1.643620E-05 -1.696680E-05 -1.741501E-05 -1.780300E-05 -1.814719E-05 -1.845987E-05
-1.875040E-05 -1.902597E-05 -1.929220E-05 -1.955350E-05 -1.981343E-05 -2.007486E-05 -2.034017E-05 -2.061134E-05 -2.089009E-05 -2.117717E-05


SCALARS SiO2(am)_Rate        float 1
LOOKUP_TABLE default
 6.158247E-06  6.288272E-06  6.463977E-06  6.664857E-06  6.879816E-06  7.102271E-06  7.328160E-06  7.554937E-06  7.781008E-06  8.005393E-06
 8.227512E-06  8.447055E-06  8.663885E-06  8.877987E-06  9.089424E-06  9.298310E-06  9.504795E-06  9.709049E-06  9.911253E-06  1.011107E-05


SCALARS Calcite_Area         float 1
LOOKUP_TABLE default
 2.275757E-01  2.735669E-01  3.179352E-01  3.617275E-01  4.052913E-01  4.488007E-01  4.923818E-01  5.361494E-01  5.802188E-01  6.247092E-01
 6.697445E-01  7.154530E-01  7.619674E-01  8.094249E-01  8.579676E-01  9.077427E-01  9.589037E-01  1.011611E+00  1.066032E+00  1.122197E+00


SCALARS SiO2(am)_Area        float 1
LOOKUP_TABLE default
 1.084174E+05  1.047743E+05  1.019933E+05  9.975737E+04  9.789972E+04  9.632011E+04  9.495327E+04  9.375422E+04  9.269073E+04  9.173889E+04
 9.088055E+04  9.010159E+04  8.939083E+04  8.873931E+04  8.813971E+04  8.758599E+04  8.707313E+04  8.659691E+04  8.615374E+04  8.574156E+04


SCALARS Material_ID          int 1
LOOKUP_TABLE default
  1
  1
  1
  1
  1
  1
  1
  1
  1
  1
  1
  1
  1
  1
  1
  1
  1
  1
  1
  1


