# vtk DataFile Version 2.0
PFLOTRAN output
ASCII
DATASET UNSTRUCTURED_GRID
POINTS           84 float
 0.000000E+00  0.000000E+00  0.000000E+00
 7.580000E-03  0.000000E+00  0.000000E+00
 1.516000E-02  0.000000E+00  0.000000E+00
 2.274000E-02  0.000000E+00  0.000000E+00
 3.032000E-02  0.000000E+00  0.000000E+00
 3.790000E-02  0.000000E+00  0.000000E+00
 4.548000E-02  0.000000E+00  0.000000E+00
 5.306000E-02  0.000000E+00  0.000000E+00
 6.064000E-02  0.000000E+00  0.000000E+00
 6.822000E-02  0.000000E+00  0.000000E+00
 7.580000E-02  0.000000E+00  0.000000E+00
 8.338000E-02  0.000000E+00  0.000000E+00
 9.096000E-02  0.000000E+00  0.000000E+00
 9.854000E-02  0.000000E+00  0.000000E+00
 1.061200E-01  0.000000E+00  0.000000E+00
 1.137000E-01  0.000000E+00  0.000000E+00
 1.212800E-01  0.000000E+00  0.000000E+00
 1.288600E-01  0.000000E+00  0.000000E+00
 1.364400E-01  0.000000E+00  0.000000E+00
 1.440200E-01  0.000000E+00  0.000000E+00
 1.516000E-01  0.000000E+00  0.000000E+00
 0.000000E+00  1.125000E-02  0.000000E+00
 7.580000E-03  1.125000E-02  0.000000E+00
 1.516000E-02  1.125000E-02  0.000000E+00
 2.274000E-02  1.125000E-02  0.000000E+00
 3.032000E-02  1.125000E-02  0.000000E+00
 3.790000E-02  1.125000E-02  0.000000E+00
 4.548000E-02  1.125000E-02  0.000000E+00
 5.306000E-02  1.125000E-02  0.000000E+00
 6.064000E-02  1.125000E-02  0.000000E+00
 6.822000E-02  1.125000E-02  0.000000E+00
 7.580000E-02  1.125000E-02  0.000000E+00
 8.338000E-02  1.125000E-02  0.000000E+00
 9.096000E-02  1.125000E-02  0.000000E+00
 9.854000E-02  1.125000E-02  0.000000E+00
 1.061200E-01  1.125000E-02  0.000000E+00
 1.137000E-01  1.125000E-02  0.000000E+00
 1.212800E-01  1.125000E-02  0.000000E+00
 1.288600E-01  1.125000E-02  0.000000E+00
 1.364400E-01  1.125000E-02  0.000000E+00
 1.440200E-01  1.125000E-02  0.000000E+00
 1.516000E-01  1.125000E-02  0.000000E+00
 0.000000E+00  0.000000E+00  1.125000E-02
 7.580000E-03  0.000000E+00  1.125000E-02
 1.516000E-02  0.000000E+00  1.125000E-02
 2.274000E-02  0.000000E+00  1.125000E-02
 3.032000E-02  0.000000E+00  1.125000E-02
 3.790000E-02  0.000000E+00  1.125000E-02
 4.548000E-02  0.000000E+00  1.125000E-02
 5.306000E-02  0.000000E+00  1.125000E-02
 6.064000E-02  0.000000E+00  1.125000E-02
 6.822000E-02  0.000000E+00  1.125000E-02
 7.580000E-02  0.000000E+00  1.125000E-02
 8.338000E-02  0.000000E+00  1.125000E-02
 9.096000E-02  0.000000E+00  1.125000E-02
 9.854000E-02  0.000000E+00  1.125000E-02
 1.061200E-01  0.000000E+00  1.125000E-02
 1.137000E-01  0.000000E+00  1.125000E-02
 1.212800E-01  0.000000E+00  1.125000E-02
 1.288600E-01  0.000000E+00  1.125000E-02
 1.364400E-01  0.000000E+00  1.125000E-02
 1.440200E-01  0.000000E+00  1.125000E-02
 1.516000E-01  0.000000E+00  1.125000E-02
 0.000000E+00  1.125000E-02  1.125000E-02
 7.580000E-03  1.125000E-02  1.125000E-02
 1.516000E-02  1.125000E-02  1.125000E-02
 2.274000E-02  1.125000E-02  1.125000E-02
 3.032000E-02  1.125000E-02  1.125000E-02
 3.790000E-02  1.125000E-02  1.125000E-02
 4.548000E-02  1.125000E-02  1.125000E-02
 5.306000E-02  1.125000E-02  1.125000E-02
 6.064000E-02  1.125000E-02  1.125000E-02
 6.822000E-02  1.125000E-02  1.125000E-02
 7.580000E-02  1.125000E-02  1.125000E-02
 8.338000E-02  1.125000E-02  1.125000E-02
 9.096000E-02  1.125000E-02  1.125000E-02
 9.854000E-02  1.125000E-02  1.125000E-02
 1.061200E-01  1.125000E-02  1.125000E-02
 1.137000E-01  1.125000E-02  1.125000E-02
 1.212800E-01  1.125000E-02  1.125000E-02
 1.288600E-01  1.125000E-02  1.125000E-02
 1.364400E-01  1.125000E-02  1.125000E-02
 1.440200E-01  1.125000E-02  1.125000E-02
 1.516000E-01  1.125000E-02  1.125000E-02
CELLS           20          180
8        0        1       22       21       42       43       64       63
8        1        2       23       22       43       44       65       64
8        2        3       24       23       44       45       66       65
8        3        4       25       24       45       46       67       66
8        4        5       26       25       46       47       68       67
8        5        6       27       26       47       48       69       68
8        6        7       28       27       48       49       70       69
8        7        8       29       28       49       50       71       70
8        8        9       30       29       50       51       72       71
8        9       10       31       30       51       52       73       72
8       10       11       32       31       52       53       74       73
8       11       12       33       32       53       54       75       74
8       12       13       34       33       54       55       76       75
8       13       14       35       34       55       56       77       76
8       14       15       36       35       56       57       78       77
8       15       16       37       36       57       58       79       78
8       16       17       38       37       58       59       80       79
8       17       18       39       38       59       60       81       80
8       18       19       40       39       60       61       82       81
8       19       20       41       40       61       62       83       82

CELL_TYPES           20
12
12
12
12
12
12
12
12
12
12
12
12
12
12
12
12
12
12
12
12

CELL_DATA       20
SCALARS Porosity             float 1
LOOKUP_TABLE default
 9.868183E-01  9.863978E-01  9.861427E-01  9.859591E-01  9.858133E-01  9.856903E-01  9.855823E-01  9.854849E-01  9.853956E-01  9.853130E-01
 9.852361E-01  9.851646E-01  9.850981E-01  9.850366E-01  9.849800E-01  9.849283E-01  9.848813E-01  9.848390E-01  9.848011E-01  9.847676E-01


SCALARS Permeability_X       float 1
LOOKUP_TABLE default
 1.000000E-12  1.000000E-12  1.000000E-12  1.000000E-12  1.000000E-12  1.000000E-12  1.000000E-12  1.000000E-12  1.000000E-12  1.000000E-12
 1.000000E-12  1.000000E-12  1.000000E-12  1.000000E-12  1.000000E-12  1.000000E-12  1.000000E-12  1.000000E-12  1.000000E-12  1.000000E-12


SCALARS Liquid_Pressure      float 1
LOOKUP_TABLE default
 7.500296E+06  7.500281E+06  7.500266E+06  7.500250E+06  7.500235E+06  7.500220E+06  7.500205E+06  7.500190E+06  7.500175E+06  7.500159E+06
 7.500144E+06  7.500129E+06  7.500114E+06  7.500099E+06  7.500083E+06  7.500068E+06  7.500053E+06  7.500038E+06  7.500023E+06  7.500008E+06


SCALARS Temperature          float 1
LOOKUP_TABLE default
 1.500000E+02  1.499999E+02  1.499998E+02  1.499998E+02  1.499997E+02  1.499997E+02  1.499996E+02  1.499996E+02  1.499996E+02  1.499995E+02
 1.499995E+02  1.499995E+02  1.499995E+02  1.499995E+02  1.499995E+02  1.499996E+02  1.499996E+02  1.499997E+02  1.499998E+02  1.499999E+02


SCALARS pH                   float 1
LOOKUP_TABLE default
 5.070660E+00  5.262054E+00  5.390007E+00  5.485230E+00  5.560678E+00  5.622892E+00  5.675586E+00  5.721045E+00  5.760762E+00  5.795760E+00
 5.826765E+00  5.854316E+00  5.878825E+00  5.900619E+00  5.919971E+00  5.937114E+00  5.952256E+00  5.965588E+00  5.977285E+00  5.987491E+00


SCALARS Total_H+             float 1
LOOKUP_TABLE default
-5.396074E-04 -7.441420E-04 -9.367144E-04 -1.119084E-03 -1.292739E-03 -1.458679E-03 -1.617493E-03 -1.769461E-03 -1.914630E-03 -2.052883E-03
-2.184003E-03 -2.307720E-03 -2.423761E-03 -2.531895E-03 -2.631960E-03 -2.723893E-03 -2.807740E-03 -2.883663E-03 -2.951928E-03 -3.012774E-03


SCALARS Total_SiO2(aq)       float 1
LOOKUP_TABLE default
 1.404907E-02  1.403643E-02  1.402198E-02  1.400601E-02  1.398874E-02  1.397033E-02  1.395090E-02  1.393057E-02  1.390941E-02  1.388751E-02
 1.386495E-02  1.384180E-02  1.381811E-02  1.379395E-02  1.376938E-02  1.374446E-02  1.371924E-02  1.369377E-02  1.366810E-02  1.364234E-02


SCALARS Total_Al+++          float 1
LOOKUP_TABLE default
 6.015348E-05  6.015348E-05  6.015348E-05  6.015348E-05  6.015348E-05  6.015349E-05  6.015349E-05  6.015349E-05  6.015349E-05  6.015349E-05
 6.015349E-05  6.015349E-05  6.015349E-05  6.015349E-05  6.015349E-05  6.015349E-05  6.015349E-05  6.015349E-05  6.015349E-05  6.015349E-05


SCALARS Total_Ca++           float 1
LOOKUP_TABLE default
 1.772708E-04  2.795380E-04  3.758243E-04  4.670093E-04  5.538366E-04  6.368063E-04  7.162137E-04  7.921977E-04  8.647820E-04  9.339088E-04
 9.994686E-04  1.061327E-03  1.119348E-03  1.173414E-03  1.223447E-03  1.269414E-03  1.311337E-03  1.349299E-03  1.383431E-03  1.413854E-03


SCALARS Total_Cl-            float 1
LOOKUP_TABLE default
 2.513233E-02  2.513233E-02  2.513233E-02  2.513233E-02  2.513233E-02  2.513233E-02  2.513233E-02  2.513233E-02  2.513233E-02  2.513233E-02
 2.513233E-02  2.513233E-02  2.513233E-02  2.513233E-02  2.513233E-02  2.513233E-02  2.513233E-02  2.513233E-02  2.513233E-02  2.513233E-02


SCALARS Total_CO2(aq)        float 1
LOOKUP_TABLE default
 1.367397E-02  1.377624E-02  1.387252E-02  1.396371E-02  1.405054E-02  1.413351E-02  1.421291E-02  1.428890E-02  1.436148E-02  1.443061E-02
 1.449617E-02  1.455803E-02  1.461605E-02  1.467011E-02  1.472015E-02  1.476611E-02  1.480804E-02  1.484600E-02  1.488013E-02  1.491055E-02


SCALARS Total_Na+            float 1
LOOKUP_TABLE default
 3.122900E-02  3.122900E-02  3.122900E-02  3.122900E-02  3.122900E-02  3.122900E-02  3.122900E-02  3.122900E-02  3.122900E-02  3.122900E-02
 3.122900E-02  3.122900E-02  3.122900E-02  3.122900E-02  3.122900E-02  3.122900E-02  3.122900E-02  3.122900E-02  3.122900E-02  3.122900E-02


SCALARS Total_K+             float 1
LOOKUP_TABLE default
 2.655416E-03  2.655416E-03  2.655416E-03  2.655416E-03  2.655416E-03  2.655416E-03  2.655416E-03  2.655416E-03  2.655416E-03  2.655416E-03
 2.655416E-03  2.655416E-03  2.655416E-03  2.655416E-03  2.655416E-03  2.655415E-03  2.655415E-03  2.655415E-03  2.655415E-03  2.655415E-03


SCALARS Total_Mg++           float 1
LOOKUP_TABLE default
 8.216757E-07  8.216757E-07  8.216757E-07  8.216757E-07  8.216757E-07  8.216757E-07  8.216757E-07  8.216757E-07  8.216757E-07  8.216757E-07
 8.216757E-07  8.216756E-07  8.216756E-07  8.216756E-07  8.216756E-07  8.216756E-07  8.216756E-07  8.216756E-07  8.216756E-07  8.216756E-07


SCALARS Total_Fe++           float 1
LOOKUP_TABLE default
 1.251593E-06  1.251593E-06  1.251593E-06  1.251593E-06  1.251593E-06  1.251593E-06  1.251593E-06  1.251593E-06  1.251593E-06  1.251593E-06
 1.251593E-06  1.251593E-06  1.251592E-06  1.251592E-06  1.251592E-06  1.251592E-06  1.251592E-06  1.251592E-06  1.251592E-06  1.251592E-06


SCALARS Total_Cu++           float 1
LOOKUP_TABLE default
 9.952832E-11  9.952832E-11  9.952832E-11  9.952832E-11  9.952832E-11  9.952832E-11  9.952832E-11  9.952832E-11  9.952832E-11  9.952832E-11
 9.952832E-11  9.952832E-11  9.952832E-11  9.952832E-11  9.952832E-11  9.952832E-11  9.952832E-11  9.952831E-11  9.952831E-11  9.952831E-11


SCALARS Total_SO4--          float 1
LOOKUP_TABLE default
 4.376188E-03  4.376188E-03  4.376188E-03  4.376188E-03  4.376188E-03  4.376188E-03  4.376188E-03  4.376188E-03  4.376188E-03  4.376188E-03
 4.376188E-03  4.376188E-03  4.376188E-03  4.376188E-03  4.376188E-03  4.376188E-03  4.376188E-03  4.376188E-03  4.376188E-03  4.376188E-03


SCALARS Total_Tracer         float 1
LOOKUP_TABLE default
 9.952832E-11  9.952832E-11  9.952832E-11  9.952832E-11  9.952832E-11  9.952832E-11  9.952832E-11  9.952832E-11  9.952832E-11  9.952832E-11
 9.952832E-11  9.952832E-11  9.952832E-11  9.952832E-11  9.952832E-11  9.952832E-11  9.952832E-11  9.952831E-11  9.952831E-11  9.952831E-11


SCALARS Active_Gas_CO2(g)    float 1
LOOKUP_TABLE default
 0.000000E+00  0.000000E+00  0.000000E+00  0.000000E+00  0.000000E+00  0.000000E+00  0.000000E+00  0.000000E+00  0.000000E+00  0.000000E+00
 0.000000E+00  0.000000E+00  0.000000E+00  0.000000E+00  0.000000E+00  0.000000E+00  0.000000E+00  0.000000E+00  0.000000E+00  0.000000E+00


SCALARS HCO3-                float 1
LOOKUP_TABLE default
 3.566929E-04  5.504651E-04  7.341953E-04  9.083862E-04  1.074123E-03  1.232242E-03  1.383268E-03  1.527462E-03  1.664882E-03  1.795446E-03
 1.918980E-03  2.035268E-03  2.144096E-03  2.245289E-03  2.338742E-03  2.424438E-03  2.502459E-03  2.572994E-03  2.636324E-03  2.692698E-03


SCALARS H2SiO4--             float 1
LOOKUP_TABLE default
 1.664939E-12  4.019213E-12  7.243230E-12  1.122551E-11  1.588097E-11  2.113651E-11  2.692189E-11  3.316414E-11  3.978426E-11  4.669591E-11
 5.380567E-11  6.101479E-11  6.822210E-11  7.532787E-11  8.223792E-11  8.886769E-11  9.514561E-11  1.010154E-10  1.064374E-10  1.113781E-10


SCALARS H3SiO4-              float 1
LOOKUP_TABLE default
 2.848139E-06  4.421917E-06  5.931438E-06  7.377880E-06  8.767695E-06  1.010573E-05  1.139452E-05  1.263451E-05  1.382457E-05  1.496232E-05
 1.604467E-05  1.706815E-05  1.802932E-05  1.892518E-05  1.975340E-05  2.051259E-05  2.120244E-05  2.182374E-05  2.237831E-05  2.286799E-05


SCALARS Calcite_VF           float 1
LOOKUP_TABLE default
 1.289105E-02  1.328085E-02  1.351491E-02  1.368251E-02  1.381541E-02  1.392793E-02  1.402740E-02  1.411787E-02  1.420164E-02  1.428002E-02
 1.435371E-02  1.442309E-02  1.448827E-02  1.454928E-02  1.460608E-02  1.465863E-02  1.470690E-02  1.475092E-02  1.479079E-02  1.482655E-02


SCALARS SiO2(am)_VF          float 1
LOOKUP_TABLE default
 2.377576E-04  2.725187E-04  2.974993E-04  3.169389E-04  3.326787E-04  3.456979E-04  3.565871E-04  3.657356E-04  3.734184E-04  3.798409E-04
 3.851645E-04  3.895209E-04  3.930218E-04  3.957641E-04  3.978336E-04  3.993078E-04  4.002566E-04  4.007437E-04  4.008270E-04  4.005611E-04


SCALARS Calcite_Rate         float 1
LOOKUP_TABLE default
-1.434019E-04 -1.357285E-04 -1.275843E-04 -1.206437E-04 -1.147193E-04 -1.094836E-04 -1.046622E-04 -1.000461E-04 -9.548116E-05 -9.085838E-05
-8.610810E-05 -8.119563E-05 -7.611764E-05 -7.089799E-05 -6.558264E-05 -6.023341E-05 -5.492124E-05 -4.971927E-05 -4.469676E-05 -3.992422E-05


SCALARS SiO2(am)_Rate        float 1
LOOKUP_TABLE default
 1.373773E-05  1.679249E-05  1.919392E-05  2.118315E-05  2.288665E-05  2.437697E-05  2.569872E-05  2.688068E-05  2.794202E-05  2.889583E-05
 2.975128E-05  3.051507E-05  3.119232E-05  3.178735E-05  3.230408E-05  3.274642E-05  3.311841E-05  3.342434E-05  3.366874E-05  3.385609E-05


SCALARS Calcite_Area         float 1
LOOKUP_TABLE default
 4.570106E+00  6.133973E+00  7.282316E+00  8.217134E+00  9.032638E+00  9.778620E+00  1.048322E+01  1.116264E+01  1.182584E+01  1.247701E+01
 1.311712E+01  1.374484E+01  1.435733E+01  1.495083E+01  1.552118E+01  1.606426E+01  1.657641E+01  1.705464E+01  1.749686E+01  1.790112E+01


SCALARS SiO2(am)_Area        float 1
LOOKUP_TABLE default
 1.624045E+05  1.552464E+05  1.508200E+05  1.477077E+05  1.453709E+05  1.435489E+05  1.420961E+05  1.409228E+05  1.399696E+05  1.391947E+05
 1.385678E+05  1.380655E+05  1.376694E+05  1.373647E+05  1.371391E+05  1.369819E+05  1.368844E+05  1.368386E+05  1.368378E+05  1.368758E+05


SCALARS Material_ID          int 1
LOOKUP_TABLE default
  1
  1
  1
  1
  1
  1
  1
  1
  1
  1
  1
  1
  1
  1
  1
  1
  1
  1
  1
  1


