# vtk DataFile Version 2.0
PFLOTRAN output
ASCII
DATASET UNSTRUCTURED_GRID
POINTS           84 float
 0.000000E+00  0.000000E+00  0.000000E+00
 7.580000E-03  0.000000E+00  0.000000E+00
 1.516000E-02  0.000000E+00  0.000000E+00
 2.274000E-02  0.000000E+00  0.000000E+00
 3.032000E-02  0.000000E+00  0.000000E+00
 3.790000E-02  0.000000E+00  0.000000E+00
 4.548000E-02  0.000000E+00  0.000000E+00
 5.306000E-02  0.000000E+00  0.000000E+00
 6.064000E-02  0.000000E+00  0.000000E+00
 6.822000E-02  0.000000E+00  0.000000E+00
 7.580000E-02  0.000000E+00  0.000000E+00
 8.338000E-02  0.000000E+00  0.000000E+00
 9.096000E-02  0.000000E+00  0.000000E+00
 9.854000E-02  0.000000E+00  0.000000E+00
 1.061200E-01  0.000000E+00  0.000000E+00
 1.137000E-01  0.000000E+00  0.000000E+00
 1.212800E-01  0.000000E+00  0.000000E+00
 1.288600E-01  0.000000E+00  0.000000E+00
 1.364400E-01  0.000000E+00  0.000000E+00
 1.440200E-01  0.000000E+00  0.000000E+00
 1.516000E-01  0.000000E+00  0.000000E+00
 0.000000E+00  1.125000E-02  0.000000E+00
 7.580000E-03  1.125000E-02  0.000000E+00
 1.516000E-02  1.125000E-02  0.000000E+00
 2.274000E-02  1.125000E-02  0.000000E+00
 3.032000E-02  1.125000E-02  0.000000E+00
 3.790000E-02  1.125000E-02  0.000000E+00
 4.548000E-02  1.125000E-02  0.000000E+00
 5.306000E-02  1.125000E-02  0.000000E+00
 6.064000E-02  1.125000E-02  0.000000E+00
 6.822000E-02  1.125000E-02  0.000000E+00
 7.580000E-02  1.125000E-02  0.000000E+00
 8.338000E-02  1.125000E-02  0.000000E+00
 9.096000E-02  1.125000E-02  0.000000E+00
 9.854000E-02  1.125000E-02  0.000000E+00
 1.061200E-01  1.125000E-02  0.000000E+00
 1.137000E-01  1.125000E-02  0.000000E+00
 1.212800E-01  1.125000E-02  0.000000E+00
 1.288600E-01  1.125000E-02  0.000000E+00
 1.364400E-01  1.125000E-02  0.000000E+00
 1.440200E-01  1.125000E-02  0.000000E+00
 1.516000E-01  1.125000E-02  0.000000E+00
 0.000000E+00  0.000000E+00  1.125000E-02
 7.580000E-03  0.000000E+00  1.125000E-02
 1.516000E-02  0.000000E+00  1.125000E-02
 2.274000E-02  0.000000E+00  1.125000E-02
 3.032000E-02  0.000000E+00  1.125000E-02
 3.790000E-02  0.000000E+00  1.125000E-02
 4.548000E-02  0.000000E+00  1.125000E-02
 5.306000E-02  0.000000E+00  1.125000E-02
 6.064000E-02  0.000000E+00  1.125000E-02
 6.822000E-02  0.000000E+00  1.125000E-02
 7.580000E-02  0.000000E+00  1.125000E-02
 8.338000E-02  0.000000E+00  1.125000E-02
 9.096000E-02  0.000000E+00  1.125000E-02
 9.854000E-02  0.000000E+00  1.125000E-02
 1.061200E-01  0.000000E+00  1.125000E-02
 1.137000E-01  0.000000E+00  1.125000E-02
 1.212800E-01  0.000000E+00  1.125000E-02
 1.288600E-01  0.000000E+00  1.125000E-02
 1.364400E-01  0.000000E+00  1.125000E-02
 1.440200E-01  0.000000E+00  1.125000E-02
 1.516000E-01  0.000000E+00  1.125000E-02
 0.000000E+00  1.125000E-02  1.125000E-02
 7.580000E-03  1.125000E-02  1.125000E-02
 1.516000E-02  1.125000E-02  1.125000E-02
 2.274000E-02  1.125000E-02  1.125000E-02
 3.032000E-02  1.125000E-02  1.125000E-02
 3.790000E-02  1.125000E-02  1.125000E-02
 4.548000E-02  1.125000E-02  1.125000E-02
 5.306000E-02  1.125000E-02  1.125000E-02
 6.064000E-02  1.125000E-02  1.125000E-02
 6.822000E-02  1.125000E-02  1.125000E-02
 7.580000E-02  1.125000E-02  1.125000E-02
 8.338000E-02  1.125000E-02  1.125000E-02
 9.096000E-02  1.125000E-02  1.125000E-02
 9.854000E-02  1.125000E-02  1.125000E-02
 1.061200E-01  1.125000E-02  1.125000E-02
 1.137000E-01  1.125000E-02  1.125000E-02
 1.212800E-01  1.125000E-02  1.125000E-02
 1.288600E-01  1.125000E-02  1.125000E-02
 1.364400E-01  1.125000E-02  1.125000E-02
 1.440200E-01  1.125000E-02  1.125000E-02
 1.516000E-01  1.125000E-02  1.125000E-02
CELLS           20          180
8        0        1       22       21       42       43       64       63
8        1        2       23       22       43       44       65       64
8        2        3       24       23       44       45       66       65
8        3        4       25       24       45       46       67       66
8        4        5       26       25       46       47       68       67
8        5        6       27       26       47       48       69       68
8        6        7       28       27       48       49       70       69
8        7        8       29       28       49       50       71       70
8        8        9       30       29       50       51       72       71
8        9       10       31       30       51       52       73       72
8       10       11       32       31       52       53       74       73
8       11       12       33       32       53       54       75       74
8       12       13       34       33       54       55       76       75
8       13       14       35       34       55       56       77       76
8       14       15       36       35       56       57       78       77
8       15       16       37       36       57       58       79       78
8       16       17       38       37       58       59       80       79
8       17       18       39       38       59       60       81       80
8       18       19       40       39       60       61       82       81
8       19       20       41       40       61       62       83       82

CELL_TYPES           20
12
12
12
12
12
12
12
12
12
12
12
12
12
12
12
12
12
12
12
12

CELL_DATA       20
SCALARS Porosity             float 1
LOOKUP_TABLE default
 9.881885E-01  9.877596E-01  9.874545E-01  9.872168E-01  9.870205E-01  9.868516E-01  9.867017E-01  9.865655E-01  9.864393E-01  9.863206E-01
 9.862076E-01  9.860992E-01  9.859942E-01  9.858920E-01  9.857922E-01  9.856945E-01  9.855986E-01  9.855045E-01  9.854123E-01  9.853223E-01


SCALARS Permeability_X       float 1
LOOKUP_TABLE default
 1.000000E-12  1.000000E-12  1.000000E-12  1.000000E-12  1.000000E-12  1.000000E-12  1.000000E-12  1.000000E-12  1.000000E-12  1.000000E-12
 1.000000E-12  1.000000E-12  1.000000E-12  1.000000E-12  1.000000E-12  1.000000E-12  1.000000E-12  1.000000E-12  1.000000E-12  1.000000E-12


SCALARS Liquid_Pressure      float 1
LOOKUP_TABLE default
 7.500296E+06  7.500281E+06  7.500266E+06  7.500250E+06  7.500235E+06  7.500220E+06  7.500205E+06  7.500190E+06  7.500175E+06  7.500159E+06
 7.500144E+06  7.500129E+06  7.500114E+06  7.500099E+06  7.500083E+06  7.500068E+06  7.500053E+06  7.500038E+06  7.500023E+06  7.500008E+06


SCALARS Temperature          float 1
LOOKUP_TABLE default
 1.500000E+02  1.499999E+02  1.499999E+02  1.499999E+02  1.499998E+02  1.499998E+02  1.499998E+02  1.499998E+02  1.499997E+02  1.499997E+02
 1.499997E+02  1.499997E+02  1.499997E+02  1.499997E+02  1.499997E+02  1.499997E+02  1.499997E+02  1.499998E+02  1.499998E+02  1.499999E+02


SCALARS pH                   float 1
LOOKUP_TABLE default
 4.891535E+00  5.026545E+00  5.133655E+00  5.221115E+00  5.294606E+00  5.357855E+00  5.413357E+00  5.462834E+00  5.507507E+00  5.548270E+00
 5.585785E+00  5.620555E+00  5.652967E+00  5.683319E+00  5.711842E+00  5.738716E+00  5.764078E+00  5.788034E+00  5.810660E+00  5.831963E+00


SCALARS Total_H+             float 1
LOOKUP_TABLE default
-4.106135E-04 -5.032289E-04 -5.978505E-04 -6.930051E-04 -7.881611E-04 -8.831589E-04 -9.779938E-04 -1.072724E-03 -1.167426E-03 -1.262172E-03
-1.357017E-03 -1.451989E-03 -1.547086E-03 -1.642264E-03 -1.737440E-03 -1.832484E-03 -1.927213E-03 -2.021395E-03 -2.114743E-03 -2.206690E-03


SCALARS Total_SiO2(aq)       float 1
LOOKUP_TABLE default
 1.405243E-02  1.404454E-02  1.403578E-02  1.402623E-02  1.401595E-02  1.400500E-02  1.399342E-02  1.398125E-02  1.396852E-02  1.395525E-02
 1.394148E-02  1.392722E-02  1.391249E-02  1.389731E-02  1.388169E-02  1.386565E-02  1.384919E-02  1.383235E-02  1.381512E-02  1.379759E-02


SCALARS Total_Al+++          float 1
LOOKUP_TABLE default
 6.015348E-05  6.015348E-05  6.015348E-05  6.015348E-05  6.015348E-05  6.015348E-05  6.015348E-05  6.015348E-05  6.015349E-05  6.015349E-05
 6.015349E-05  6.015349E-05  6.015349E-05  6.015349E-05  6.015349E-05  6.015349E-05  6.015350E-05  6.015350E-05  6.015350E-05  6.015349E-05


SCALARS Total_Ca++           float 1
LOOKUP_TABLE default
 1.127738E-04  1.590815E-04  2.063923E-04  2.539696E-04  3.015476E-04  3.490465E-04  3.964640E-04  4.438291E-04  4.911800E-04  5.385530E-04
 5.859755E-04  6.334617E-04  6.810099E-04  7.285991E-04  7.761873E-04  8.237090E-04  8.710737E-04  9.181648E-04  9.648387E-04  1.010812E-03


SCALARS Total_Cl-            float 1
LOOKUP_TABLE default
 2.513233E-02  2.513233E-02  2.513233E-02  2.513233E-02  2.513233E-02  2.513233E-02  2.513233E-02  2.513233E-02  2.513233E-02  2.513233E-02
 2.513233E-02  2.513233E-02  2.513233E-02  2.513233E-02  2.513233E-02  2.513233E-02  2.513233E-02  2.513233E-02  2.513233E-02  2.513233E-02


SCALARS Total_CO2(aq)        float 1
LOOKUP_TABLE default
 1.360947E-02  1.365578E-02  1.370309E-02  1.375067E-02  1.379825E-02  1.384575E-02  1.389316E-02  1.394053E-02  1.398788E-02  1.403525E-02
 1.408268E-02  1.413016E-02  1.417771E-02  1.422530E-02  1.427289E-02  1.432041E-02  1.436777E-02  1.441486E-02  1.446154E-02  1.450751E-02


SCALARS Total_Na+            float 1
LOOKUP_TABLE default
 3.122900E-02  3.122900E-02  3.122900E-02  3.122900E-02  3.122900E-02  3.122900E-02  3.122900E-02  3.122900E-02  3.122900E-02  3.122900E-02
 3.122900E-02  3.122900E-02  3.122900E-02  3.122900E-02  3.122900E-02  3.122900E-02  3.122900E-02  3.122900E-02  3.122900E-02  3.122900E-02


SCALARS Total_K+             float 1
LOOKUP_TABLE default
 2.655416E-03  2.655416E-03  2.655416E-03  2.655416E-03  2.655416E-03  2.655416E-03  2.655416E-03  2.655416E-03  2.655416E-03  2.655416E-03
 2.655416E-03  2.655416E-03  2.655416E-03  2.655416E-03  2.655416E-03  2.655416E-03  2.655415E-03  2.655415E-03  2.655415E-03  2.655415E-03


SCALARS Total_Mg++           float 1
LOOKUP_TABLE default
 8.216757E-07  8.216757E-07  8.216757E-07  8.216757E-07  8.216757E-07  8.216757E-07  8.216757E-07  8.216757E-07  8.216757E-07  8.216757E-07
 8.216757E-07  8.216757E-07  8.216757E-07  8.216756E-07  8.216756E-07  8.216756E-07  8.216756E-07  8.216756E-07  8.216756E-07  8.216756E-07


SCALARS Total_Fe++           float 1
LOOKUP_TABLE default
 1.251593E-06  1.251593E-06  1.251593E-06  1.251593E-06  1.251593E-06  1.251593E-06  1.251593E-06  1.251593E-06  1.251593E-06  1.251593E-06
 1.251593E-06  1.251593E-06  1.251593E-06  1.251593E-06  1.251592E-06  1.251592E-06  1.251592E-06  1.251592E-06  1.251592E-06  1.251592E-06


SCALARS Total_Cu++           float 1
LOOKUP_TABLE default
 9.952832E-11  9.952832E-11  9.952832E-11  9.952832E-11  9.952832E-11  9.952832E-11  9.952832E-11  9.952832E-11  9.952832E-11  9.952832E-11
 9.952832E-11  9.952832E-11  9.952832E-11  9.952832E-11  9.952832E-11  9.952832E-11  9.952832E-11  9.952832E-11  9.952831E-11  9.952831E-11


SCALARS Total_SO4--          float 1
LOOKUP_TABLE default
 4.376188E-03  4.376188E-03  4.376188E-03  4.376188E-03  4.376188E-03  4.376188E-03  4.376188E-03  4.376188E-03  4.376188E-03  4.376188E-03
 4.376188E-03  4.376188E-03  4.376188E-03  4.376188E-03  4.376188E-03  4.376188E-03  4.376188E-03  4.376188E-03  4.376188E-03  4.376188E-03


SCALARS Total_Tracer         float 1
LOOKUP_TABLE default
 9.952832E-11  9.952832E-11  9.952832E-11  9.952832E-11  9.952832E-11  9.952832E-11  9.952832E-11  9.952832E-11  9.952832E-11  9.952832E-11
 9.952832E-11  9.952832E-11  9.952832E-11  9.952832E-11  9.952832E-11  9.952832E-11  9.952832E-11  9.952832E-11  9.952831E-11  9.952831E-11


SCALARS Active_Gas_CO2(g)    float 1
LOOKUP_TABLE default
 0.000000E+00  0.000000E+00  0.000000E+00  0.000000E+00  0.000000E+00  0.000000E+00  0.000000E+00  0.000000E+00  0.000000E+00  0.000000E+00
 0.000000E+00  0.000000E+00  0.000000E+00  0.000000E+00  0.000000E+00  0.000000E+00  0.000000E+00  0.000000E+00  0.000000E+00  0.000000E+00


SCALARS HCO3-                float 1
LOOKUP_TABLE default
 2.370986E-04  3.226171E-04  4.115840E-04  5.018099E-04  5.924169E-04  6.830619E-04  7.736340E-04  8.641237E-04  9.545616E-04  1.044987E-03
 1.135431E-03  1.225904E-03  1.316388E-03  1.406834E-03  1.497152E-03  1.587211E-03  1.676835E-03  1.765798E-03  1.853829E-03  1.940395E-03


SCALARS H2SiO4--             float 1
LOOKUP_TABLE default
 7.295299E-13  1.358197E-12  2.223640E-12  3.325438E-12  4.663074E-12  6.237256E-12  8.050138E-12  1.010519E-11  1.240690E-11  1.496042E-11
 1.777110E-11  2.084405E-11  2.418349E-11  2.779214E-11  3.167046E-11  3.581581E-11  4.022158E-11  4.487628E-11  4.976262E-11  5.484390E-11


SCALARS H3SiO4-              float 1
LOOKUP_TABLE default
 1.885874E-06  2.572153E-06  3.289693E-06  4.021067E-06  4.759207E-06  5.501303E-06  6.246410E-06  6.994414E-06  7.745541E-06  8.500099E-06
 9.258332E-06  1.002032E-05  1.078592E-05  1.155468E-05  1.232583E-05  1.309818E-05  1.387015E-05  1.463967E-05  1.540424E-05  1.615897E-05


SCALARS Calcite_VF           float 1
LOOKUP_TABLE default
 1.141009E-02  1.177776E-02  1.203606E-02  1.223577E-02  1.239997E-02  1.254114E-02  1.266671E-02  1.278143E-02  1.288846E-02  1.298998E-02
 1.308755E-02  1.318226E-02  1.327493E-02  1.336612E-02  1.345620E-02  1.354541E-02  1.363387E-02  1.372157E-02  1.380843E-02  1.389408E-02


SCALARS SiO2(am)_VF          float 1
LOOKUP_TABLE default
 3.813407E-04  4.414144E-04  4.879963E-04  5.262289E-04  5.586488E-04  5.867132E-04  6.113416E-04  6.331538E-04  6.525888E-04  6.699692E-04
 6.855401E-04  6.994925E-04  7.119787E-04  7.231230E-04  7.330286E-04  7.417833E-04  7.494628E-04  7.561341E-04  7.618578E-04  7.666802E-04


SCALARS Calcite_Rate         float 1
LOOKUP_TABLE default
-5.747159E-05 -6.155872E-05 -6.284274E-05 -6.314693E-05 -6.309905E-05 -6.294660E-05 -6.279288E-05 -6.267939E-05 -6.261842E-05 -6.260711E-05
-6.263393E-05 -6.268166E-05 -6.272890E-05 -6.275077E-05 -6.271931E-05 -6.260389E-05 -6.237165E-05 -6.198823E-05 -6.141894E-05 -6.063316E-05


SCALARS SiO2(am)_Rate        float 1
LOOKUP_TABLE default
 9.268084E-06  1.050224E-05  1.165029E-05  1.269903E-05  1.366044E-05  1.454890E-05  1.537692E-05  1.615457E-05  1.688981E-05  1.758890E-05
 1.825670E-05  1.889700E-05  1.951267E-05  2.010581E-05  2.067786E-05  2.122968E-05  2.176164E-05  2.227361E-05  2.276508E-05  2.323401E-05


SCALARS Calcite_Area         float 1
LOOKUP_TABLE default
 1.316508E+00  1.809209E+00  2.247478E+00  2.648858E+00  3.025708E+00  3.387433E+00  3.741398E+00  4.093527E+00  4.448706E+00  4.811070E+00
 5.184180E+00  5.571150E+00  5.974713E+00  6.397248E+00  6.840782E+00  7.306948E+00  7.796929E+00  8.311375E+00  8.850306E+00  9.411685E+00


SCALARS SiO2(am)_Area        float 1
LOOKUP_TABLE default
 1.382507E+05  1.316638E+05  1.273347E+05  1.241764E+05  1.217304E+05  1.197620E+05  1.181361E+05  1.167681E+05  1.156017E+05  1.145977E+05
 1.137280E+05  1.129713E+05  1.123116E+05  1.117364E+05  1.112355E+05  1.108010E+05  1.104261E+05  1.101052E+05  1.098337E+05  1.096078E+05


SCALARS Material_ID          int 1
LOOKUP_TABLE default
  1
  1
  1
  1
  1
  1
  1
  1
  1
  1
  1
  1
  1
  1
  1
  1
  1
  1
  1
  1


