# vtk DataFile Version 2.0
PFLOTRAN output
ASCII
DATASET UNSTRUCTURED_GRID
POINTS           84 float
 0.000000E+00  0.000000E+00  0.000000E+00
 7.580000E-03  0.000000E+00  0.000000E+00
 1.516000E-02  0.000000E+00  0.000000E+00
 2.274000E-02  0.000000E+00  0.000000E+00
 3.032000E-02  0.000000E+00  0.000000E+00
 3.790000E-02  0.000000E+00  0.000000E+00
 4.548000E-02  0.000000E+00  0.000000E+00
 5.306000E-02  0.000000E+00  0.000000E+00
 6.064000E-02  0.000000E+00  0.000000E+00
 6.822000E-02  0.000000E+00  0.000000E+00
 7.580000E-02  0.000000E+00  0.000000E+00
 8.338000E-02  0.000000E+00  0.000000E+00
 9.096000E-02  0.000000E+00  0.000000E+00
 9.854000E-02  0.000000E+00  0.000000E+00
 1.061200E-01  0.000000E+00  0.000000E+00
 1.137000E-01  0.000000E+00  0.000000E+00
 1.212800E-01  0.000000E+00  0.000000E+00
 1.288600E-01  0.000000E+00  0.000000E+00
 1.364400E-01  0.000000E+00  0.000000E+00
 1.440200E-01  0.000000E+00  0.000000E+00
 1.516000E-01  0.000000E+00  0.000000E+00
 0.000000E+00  1.125000E-02  0.000000E+00
 7.580000E-03  1.125000E-02  0.000000E+00
 1.516000E-02  1.125000E-02  0.000000E+00
 2.274000E-02  1.125000E-02  0.000000E+00
 3.032000E-02  1.125000E-02  0.000000E+00
 3.790000E-02  1.125000E-02  0.000000E+00
 4.548000E-02  1.125000E-02  0.000000E+00
 5.306000E-02  1.125000E-02  0.000000E+00
 6.064000E-02  1.125000E-02  0.000000E+00
 6.822000E-02  1.125000E-02  0.000000E+00
 7.580000E-02  1.125000E-02  0.000000E+00
 8.338000E-02  1.125000E-02  0.000000E+00
 9.096000E-02  1.125000E-02  0.000000E+00
 9.854000E-02  1.125000E-02  0.000000E+00
 1.061200E-01  1.125000E-02  0.000000E+00
 1.137000E-01  1.125000E-02  0.000000E+00
 1.212800E-01  1.125000E-02  0.000000E+00
 1.288600E-01  1.125000E-02  0.000000E+00
 1.364400E-01  1.125000E-02  0.000000E+00
 1.440200E-01  1.125000E-02  0.000000E+00
 1.516000E-01  1.125000E-02  0.000000E+00
 0.000000E+00  0.000000E+00  1.125000E-02
 7.580000E-03  0.000000E+00  1.125000E-02
 1.516000E-02  0.000000E+00  1.125000E-02
 2.274000E-02  0.000000E+00  1.125000E-02
 3.032000E-02  0.000000E+00  1.125000E-02
 3.790000E-02  0.000000E+00  1.125000E-02
 4.548000E-02  0.000000E+00  1.125000E-02
 5.306000E-02  0.000000E+00  1.125000E-02
 6.064000E-02  0.000000E+00  1.125000E-02
 6.822000E-02  0.000000E+00  1.125000E-02
 7.580000E-02  0.000000E+00  1.125000E-02
 8.338000E-02  0.000000E+00  1.125000E-02
 9.096000E-02  0.000000E+00  1.125000E-02
 9.854000E-02  0.000000E+00  1.125000E-02
 1.061200E-01  0.000000E+00  1.125000E-02
 1.137000E-01  0.000000E+00  1.125000E-02
 1.212800E-01  0.000000E+00  1.125000E-02
 1.288600E-01  0.000000E+00  1.125000E-02
 1.364400E-01  0.000000E+00  1.125000E-02
 1.440200E-01  0.000000E+00  1.125000E-02
 1.516000E-01  0.000000E+00  1.125000E-02
 0.000000E+00  1.125000E-02  1.125000E-02
 7.580000E-03  1.125000E-02  1.125000E-02
 1.516000E-02  1.125000E-02  1.125000E-02
 2.274000E-02  1.125000E-02  1.125000E-02
 3.032000E-02  1.125000E-02  1.125000E-02
 3.790000E-02  1.125000E-02  1.125000E-02
 4.548000E-02  1.125000E-02  1.125000E-02
 5.306000E-02  1.125000E-02  1.125000E-02
 6.064000E-02  1.125000E-02  1.125000E-02
 6.822000E-02  1.125000E-02  1.125000E-02
 7.580000E-02  1.125000E-02  1.125000E-02
 8.338000E-02  1.125000E-02  1.125000E-02
 9.096000E-02  1.125000E-02  1.125000E-02
 9.854000E-02  1.125000E-02  1.125000E-02
 1.061200E-01  1.125000E-02  1.125000E-02
 1.137000E-01  1.125000E-02  1.125000E-02
 1.212800E-01  1.125000E-02  1.125000E-02
 1.288600E-01  1.125000E-02  1.125000E-02
 1.364400E-01  1.125000E-02  1.125000E-02
 1.440200E-01  1.125000E-02  1.125000E-02
 1.516000E-01  1.125000E-02  1.125000E-02
CELLS           20          180
8        0        1       22       21       42       43       64       63
8        1        2       23       22       43       44       65       64
8        2        3       24       23       44       45       66       65
8        3        4       25       24       45       46       67       66
8        4        5       26       25       46       47       68       67
8        5        6       27       26       47       48       69       68
8        6        7       28       27       48       49       70       69
8        7        8       29       28       49       50       71       70
8        8        9       30       29       50       51       72       71
8        9       10       31       30       51       52       73       72
8       10       11       32       31       52       53       74       73
8       11       12       33       32       53       54       75       74
8       12       13       34       33       54       55       76       75
8       13       14       35       34       55       56       77       76
8       14       15       36       35       56       57       78       77
8       15       16       37       36       57       58       79       78
8       16       17       38       37       58       59       80       79
8       17       18       39       38       59       60       81       80
8       18       19       40       39       60       61       82       81
8       19       20       41       40       61       62       83       82

CELL_TYPES           20
12
12
12
12
12
12
12
12
12
12
12
12
12
12
12
12
12
12
12
12

CELL_DATA       20
SCALARS Porosity             float 1
LOOKUP_TABLE default
 9.894249E-01  9.891310E-01  9.888891E-01  9.886810E-01  9.884973E-01  9.883323E-01  9.881821E-01  9.880439E-01  9.879155E-01  9.877952E-01
 9.876818E-01  9.875740E-01  9.874711E-01  9.873724E-01  9.872772E-01  9.871850E-01  9.870954E-01  9.870080E-01  9.869225E-01  9.868388E-01


SCALARS Permeability_X       float 1
LOOKUP_TABLE default
 1.000000E-12  1.000000E-12  1.000000E-12  1.000000E-12  1.000000E-12  1.000000E-12  1.000000E-12  1.000000E-12  1.000000E-12  1.000000E-12
 1.000000E-12  1.000000E-12  1.000000E-12  1.000000E-12  1.000000E-12  1.000000E-12  1.000000E-12  1.000000E-12  1.000000E-12  1.000000E-12


SCALARS Liquid_Pressure      float 1
LOOKUP_TABLE default
 7.500296E+06  7.500281E+06  7.500266E+06  7.500250E+06  7.500235E+06  7.500220E+06  7.500205E+06  7.500190E+06  7.500175E+06  7.500159E+06
 7.500144E+06  7.500129E+06  7.500114E+06  7.500099E+06  7.500083E+06  7.500068E+06  7.500053E+06  7.500038E+06  7.500023E+06  7.500008E+06


SCALARS Temperature          float 1
LOOKUP_TABLE default
 1.500000E+02  1.500000E+02  1.500000E+02  1.500000E+02  1.500000E+02  1.499999E+02  1.499999E+02  1.499999E+02  1.499999E+02  1.499999E+02
 1.499999E+02  1.499999E+02  1.499999E+02  1.499999E+02  1.499999E+02  1.499999E+02  1.499999E+02  1.499999E+02  1.499999E+02  1.500000E+02


SCALARS pH                   float 1
LOOKUP_TABLE default
 4.777129E+00  4.832807E+00  4.886537E+00  4.937367E+00  4.985012E+00  5.029519E+00  5.071086E+00  5.109968E+00  5.146431E+00  5.180727E+00
 5.213088E+00  5.243723E+00  5.272816E+00  5.300528E+00  5.327003E+00  5.352367E+00  5.376729E+00  5.400187E+00  5.422828E+00  5.444671E+00


SCALARS Total_H+             float 1
LOOKUP_TABLE default
-3.495314E-04 -3.775786E-04 -4.076493E-04 -4.392170E-04 -4.719354E-04 -5.055716E-04 -5.399674E-04 -5.750161E-04 -6.106468E-04 -6.468140E-04
-6.834907E-04 -7.206636E-04 -7.583297E-04 -7.964936E-04 -8.351664E-04 -8.743636E-04 -9.141049E-04 -9.544130E-04 -9.953130E-04 -1.036722E-03


SCALARS Total_SiO2(aq)       float 1
LOOKUP_TABLE default
 1.405446E-02  1.404936E-02  1.404405E-02  1.403852E-02  1.403276E-02  1.402677E-02  1.402054E-02  1.401408E-02  1.400740E-02  1.400050E-02
 1.399338E-02  1.398605E-02  1.397851E-02  1.397076E-02  1.396281E-02  1.395466E-02  1.394631E-02  1.393777E-02  1.392904E-02  1.392014E-02


SCALARS Total_Al+++          float 1
LOOKUP_TABLE default
 6.015348E-05  6.015348E-05  6.015348E-05  6.015348E-05  6.015348E-05  6.015348E-05  6.015348E-05  6.015348E-05  6.015348E-05  6.015348E-05
 6.015348E-05  6.015348E-05  6.015348E-05  6.015348E-05  6.015348E-05  6.015348E-05  6.015348E-05  6.015348E-05  6.015348E-05  6.015348E-05


SCALARS Total_Ca++           float 1
LOOKUP_TABLE default
 8.223276E-05  9.625636E-05  1.112917E-04  1.270756E-04  1.434348E-04  1.602528E-04  1.774508E-04  1.949751E-04  2.127905E-04  2.308741E-04
 2.492124E-04  2.677989E-04  2.866319E-04  3.057139E-04  3.250503E-04  3.446489E-04  3.645195E-04  3.846736E-04  4.051236E-04  4.258283E-04


SCALARS Total_Cl-            float 1
LOOKUP_TABLE default
 2.513233E-02  2.513233E-02  2.513233E-02  2.513233E-02  2.513233E-02  2.513233E-02  2.513233E-02  2.513233E-02  2.513233E-02  2.513233E-02
 2.513233E-02  2.513233E-02  2.513233E-02  2.513233E-02  2.513233E-02  2.513233E-02  2.513233E-02  2.513233E-02  2.513233E-02  2.513233E-02


SCALARS Total_CO2(aq)        float 1
LOOKUP_TABLE default
 1.357893E-02  1.359296E-02  1.360799E-02  1.362378E-02  1.364013E-02  1.365695E-02  1.367415E-02  1.369167E-02  1.370949E-02  1.372757E-02
 1.374591E-02  1.376450E-02  1.378333E-02  1.380241E-02  1.382175E-02  1.384135E-02  1.386122E-02  1.388137E-02  1.390182E-02  1.392253E-02


SCALARS Total_Na+            float 1
LOOKUP_TABLE default
 3.122900E-02  3.122900E-02  3.122900E-02  3.122900E-02  3.122900E-02  3.122900E-02  3.122900E-02  3.122900E-02  3.122900E-02  3.122900E-02
 3.122900E-02  3.122900E-02  3.122900E-02  3.122900E-02  3.122900E-02  3.122900E-02  3.122900E-02  3.122900E-02  3.122900E-02  3.122900E-02


SCALARS Total_K+             float 1
LOOKUP_TABLE default
 2.655416E-03  2.655416E-03  2.655416E-03  2.655416E-03  2.655416E-03  2.655416E-03  2.655416E-03  2.655416E-03  2.655416E-03  2.655416E-03
 2.655416E-03  2.655416E-03  2.655416E-03  2.655416E-03  2.655416E-03  2.655416E-03  2.655416E-03  2.655416E-03  2.655416E-03  2.655416E-03


SCALARS Total_Mg++           float 1
LOOKUP_TABLE default
 8.216757E-07  8.216757E-07  8.216757E-07  8.216757E-07  8.216757E-07  8.216757E-07  8.216757E-07  8.216757E-07  8.216757E-07  8.216757E-07
 8.216757E-07  8.216757E-07  8.216757E-07  8.216756E-07  8.216756E-07  8.216756E-07  8.216756E-07  8.216756E-07  8.216756E-07  8.216756E-07


SCALARS Total_Fe++           float 1
LOOKUP_TABLE default
 1.251593E-06  1.251593E-06  1.251593E-06  1.251593E-06  1.251593E-06  1.251593E-06  1.251593E-06  1.251593E-06  1.251593E-06  1.251593E-06
 1.251593E-06  1.251593E-06  1.251593E-06  1.251593E-06  1.251593E-06  1.251592E-06  1.251592E-06  1.251592E-06  1.251592E-06  1.251592E-06


SCALARS Total_Cu++           float 1
LOOKUP_TABLE default
 9.952832E-11  9.952832E-11  9.952832E-11  9.952832E-11  9.952832E-11  9.952832E-11  9.952832E-11  9.952832E-11  9.952832E-11  9.952832E-11
 9.952832E-11  9.952832E-11  9.952832E-11  9.952832E-11  9.952832E-11  9.952832E-11  9.952832E-11  9.952832E-11  9.952832E-11  9.952832E-11


SCALARS Total_SO4--          float 1
LOOKUP_TABLE default
 4.376188E-03  4.376188E-03  4.376188E-03  4.376188E-03  4.376188E-03  4.376188E-03  4.376188E-03  4.376188E-03  4.376188E-03  4.376188E-03
 4.376188E-03  4.376188E-03  4.376188E-03  4.376188E-03  4.376188E-03  4.376188E-03  4.376188E-03  4.376188E-03  4.376188E-03  4.376188E-03


SCALARS Total_Tracer         float 1
LOOKUP_TABLE default
 9.952832E-11  9.952832E-11  9.952832E-11  9.952832E-11  9.952832E-11  9.952832E-11  9.952832E-11  9.952832E-11  9.952832E-11  9.952832E-11
 9.952832E-11  9.952832E-11  9.952832E-11  9.952832E-11  9.952832E-11  9.952832E-11  9.952832E-11  9.952832E-11  9.952832E-11  9.952832E-11


SCALARS Active_Gas_CO2(g)    float 1
LOOKUP_TABLE default
 0.000000E+00  0.000000E+00  0.000000E+00  0.000000E+00  0.000000E+00  0.000000E+00  0.000000E+00  0.000000E+00  0.000000E+00  0.000000E+00
 0.000000E+00  0.000000E+00  0.000000E+00  0.000000E+00  0.000000E+00  0.000000E+00  0.000000E+00  0.000000E+00  0.000000E+00  0.000000E+00


SCALARS HCO3-                float 1
LOOKUP_TABLE default
 1.825097E-04  2.073107E-04  2.344062E-04  2.632585E-04  2.934841E-04  3.248085E-04  3.570364E-04  3.900294E-04  4.236908E-04  4.579544E-04
 4.927760E-04  5.281285E-04  5.639970E-04  6.003765E-04  6.372694E-04  6.746840E-04  7.126331E-04  7.511337E-04  7.902053E-04  8.297649E-04


SCALARS H2SiO4--             float 1
LOOKUP_TABLE default
 4.307292E-13  5.564690E-13  7.124955E-13  9.001559E-13  1.120674E-12  1.375184E-12  1.664780E-12  1.990573E-12  2.353717E-12  2.755448E-12
 3.197094E-12  3.680102E-12  4.206045E-12  4.776639E-12  5.393752E-12  6.059417E-12  6.775842E-12  7.545420E-12  8.370740E-12  9.252193E-12


SCALARS H3SiO4-              float 1
LOOKUP_TABLE default
 1.449299E-06  1.646958E-06  1.863179E-06  2.093723E-06  2.335566E-06  2.586546E-06  2.845126E-06  3.110220E-06  3.381071E-06  3.657162E-06
 3.938155E-06  4.223849E-06  4.514139E-06  4.809003E-06  5.108478E-06  5.412651E-06  5.721649E-06  6.035632E-06  6.354784E-06  6.678454E-06


SCALARS Calcite_VF           float 1
LOOKUP_TABLE default
 9.887213E-03  1.009844E-02  1.027028E-02  1.041727E-02  1.054645E-02  1.066217E-02  1.076741E-02  1.086434E-02  1.095459E-02  1.103944E-02
 1.111987E-02  1.119671E-02  1.127060E-02  1.134209E-02  1.141165E-02  1.147964E-02  1.154642E-02  1.161226E-02  1.167742E-02  1.174196E-02


SCALARS SiO2(am)_VF          float 1
LOOKUP_TABLE default
 6.832564E-04  7.652489E-04  8.348048E-04  8.956958E-04  9.500197E-04  9.991209E-04  1.043931E-03  1.085128E-03  1.123226E-03  1.158622E-03
 1.191632E-03  1.222511E-03  1.251469E-03  1.278679E-03  1.304286E-03  1.328415E-03  1.351172E-03  1.372646E-03  1.392917E-03  1.412007E-03


SCALARS Calcite_Rate         float 1
LOOKUP_TABLE default
-1.674531E-05 -1.866096E-05 -2.000161E-05 -2.099100E-05 -2.174951E-05 -2.235263E-05 -2.285037E-05 -2.327691E-05 -2.365610E-05 -2.400493E-05
-2.433573E-05 -2.465758E-05 -2.497728E-05 -2.530006E-05 -2.562995E-05 -2.597015E-05 -2.632325E-05 -2.669136E-05 -2.707622E-05 -2.747838E-05


SCALARS SiO2(am)_Rate        float 1
LOOKUP_TABLE default
 6.566844E-06  6.789580E-06  7.063592E-06  7.361138E-06  7.668351E-06  7.977789E-06  8.285393E-06  8.588990E-06  8.887498E-06  9.180473E-06
 9.467846E-06  9.749773E-06  1.002653E-05  1.029848E-05  1.056600E-05  1.082949E-05  1.108935E-05  1.134596E-05  1.159971E-05  1.185028E-05


SCALARS Calcite_Area         float 1
LOOKUP_TABLE default
 3.100896E-01  3.833154E-01  4.539541E-01  5.234107E-01  5.921727E-01  6.605436E-01  7.287920E-01  7.971858E-01  8.659995E-01  9.355128E-01
 1.006011E+00  1.077783E+00  1.151124E+00  1.226336E+00  1.303728E+00  1.383621E+00  1.466349E+00  1.552261E+00  1.641726E+00  1.734892E+00


SCALARS SiO2(am)_Area        float 1
LOOKUP_TABLE default
 1.136513E+05  1.094295E+05  1.062971E+05  1.038290E+05  1.018094E+05  1.001126E+05  9.865871E+04  9.739381E+04  9.627996E+04  9.528946E+04
 9.440153E+04  9.360020E+04  9.287298E+04  9.220989E+04  9.160289E+04  9.104536E+04  9.053187E+04  9.005783E+04  8.961941E+04  8.921430E+04


SCALARS Material_ID          int 1
LOOKUP_TABLE default
  1
  1
  1
  1
  1
  1
  1
  1
  1
  1
  1
  1
  1
  1
  1
  1
  1
  1
  1
  1


