# vtk DataFile Version 2.0
PFLOTRAN output
ASCII
DATASET UNSTRUCTURED_GRID
POINTS           84 float
 0.000000E+00  0.000000E+00  0.000000E+00
 7.580000E-03  0.000000E+00  0.000000E+00
 1.516000E-02  0.000000E+00  0.000000E+00
 2.274000E-02  0.000000E+00  0.000000E+00
 3.032000E-02  0.000000E+00  0.000000E+00
 3.790000E-02  0.000000E+00  0.000000E+00
 4.548000E-02  0.000000E+00  0.000000E+00
 5.306000E-02  0.000000E+00  0.000000E+00
 6.064000E-02  0.000000E+00  0.000000E+00
 6.822000E-02  0.000000E+00  0.000000E+00
 7.580000E-02  0.000000E+00  0.000000E+00
 8.338000E-02  0.000000E+00  0.000000E+00
 9.096000E-02  0.000000E+00  0.000000E+00
 9.854000E-02  0.000000E+00  0.000000E+00
 1.061200E-01  0.000000E+00  0.000000E+00
 1.137000E-01  0.000000E+00  0.000000E+00
 1.212800E-01  0.000000E+00  0.000000E+00
 1.288600E-01  0.000000E+00  0.000000E+00
 1.364400E-01  0.000000E+00  0.000000E+00
 1.440200E-01  0.000000E+00  0.000000E+00
 1.516000E-01  0.000000E+00  0.000000E+00
 0.000000E+00  1.125000E-02  0.000000E+00
 7.580000E-03  1.125000E-02  0.000000E+00
 1.516000E-02  1.125000E-02  0.000000E+00
 2.274000E-02  1.125000E-02  0.000000E+00
 3.032000E-02  1.125000E-02  0.000000E+00
 3.790000E-02  1.125000E-02  0.000000E+00
 4.548000E-02  1.125000E-02  0.000000E+00
 5.306000E-02  1.125000E-02  0.000000E+00
 6.064000E-02  1.125000E-02  0.000000E+00
 6.822000E-02  1.125000E-02  0.000000E+00
 7.580000E-02  1.125000E-02  0.000000E+00
 8.338000E-02  1.125000E-02  0.000000E+00
 9.096000E-02  1.125000E-02  0.000000E+00
 9.854000E-02  1.125000E-02  0.000000E+00
 1.061200E-01  1.125000E-02  0.000000E+00
 1.137000E-01  1.125000E-02  0.000000E+00
 1.212800E-01  1.125000E-02  0.000000E+00
 1.288600E-01  1.125000E-02  0.000000E+00
 1.364400E-01  1.125000E-02  0.000000E+00
 1.440200E-01  1.125000E-02  0.000000E+00
 1.516000E-01  1.125000E-02  0.000000E+00
 0.000000E+00  0.000000E+00  1.125000E-02
 7.580000E-03  0.000000E+00  1.125000E-02
 1.516000E-02  0.000000E+00  1.125000E-02
 2.274000E-02  0.000000E+00  1.125000E-02
 3.032000E-02  0.000000E+00  1.125000E-02
 3.790000E-02  0.000000E+00  1.125000E-02
 4.548000E-02  0.000000E+00  1.125000E-02
 5.306000E-02  0.000000E+00  1.125000E-02
 6.064000E-02  0.000000E+00  1.125000E-02
 6.822000E-02  0.000000E+00  1.125000E-02
 7.580000E-02  0.000000E+00  1.125000E-02
 8.338000E-02  0.000000E+00  1.125000E-02
 9.096000E-02  0.000000E+00  1.125000E-02
 9.854000E-02  0.000000E+00  1.125000E-02
 1.061200E-01  0.000000E+00  1.125000E-02
 1.137000E-01  0.000000E+00  1.125000E-02
 1.212800E-01  0.000000E+00  1.125000E-02
 1.288600E-01  0.000000E+00  1.125000E-02
 1.364400E-01  0.000000E+00  1.125000E-02
 1.440200E-01  0.000000E+00  1.125000E-02
 1.516000E-01  0.000000E+00  1.125000E-02
 0.000000E+00  1.125000E-02  1.125000E-02
 7.580000E-03  1.125000E-02  1.125000E-02
 1.516000E-02  1.125000E-02  1.125000E-02
 2.274000E-02  1.125000E-02  1.125000E-02
 3.032000E-02  1.125000E-02  1.125000E-02
 3.790000E-02  1.125000E-02  1.125000E-02
 4.548000E-02  1.125000E-02  1.125000E-02
 5.306000E-02  1.125000E-02  1.125000E-02
 6.064000E-02  1.125000E-02  1.125000E-02
 6.822000E-02  1.125000E-02  1.125000E-02
 7.580000E-02  1.125000E-02  1.125000E-02
 8.338000E-02  1.125000E-02  1.125000E-02
 9.096000E-02  1.125000E-02  1.125000E-02
 9.854000E-02  1.125000E-02  1.125000E-02
 1.061200E-01  1.125000E-02  1.125000E-02
 1.137000E-01  1.125000E-02  1.125000E-02
 1.212800E-01  1.125000E-02  1.125000E-02
 1.288600E-01  1.125000E-02  1.125000E-02
 1.364400E-01  1.125000E-02  1.125000E-02
 1.440200E-01  1.125000E-02  1.125000E-02
 1.516000E-01  1.125000E-02  1.125000E-02
CELLS           20          180
8        0        1       22       21       42       43       64       63
8        1        2       23       22       43       44       65       64
8        2        3       24       23       44       45       66       65
8        3        4       25       24       45       46       67       66
8        4        5       26       25       46       47       68       67
8        5        6       27       26       47       48       69       68
8        6        7       28       27       48       49       70       69
8        7        8       29       28       49       50       71       70
8        8        9       30       29       50       51       72       71
8        9       10       31       30       51       52       73       72
8       10       11       32       31       52       53       74       73
8       11       12       33       32       53       54       75       74
8       12       13       34       33       54       55       76       75
8       13       14       35       34       55       56       77       76
8       14       15       36       35       56       57       78       77
8       15       16       37       36       57       58       79       78
8       16       17       38       37       58       59       80       79
8       17       18       39       38       59       60       81       80
8       18       19       40       39       60       61       82       81
8       19       20       41       40       61       62       83       82

CELL_TYPES           20
12
12
12
12
12
12
12
12
12
12
12
12
12
12
12
12
12
12
12
12

CELL_DATA       20
SCALARS Porosity             float 1
LOOKUP_TABLE default
 9.895262E-01  9.892478E-01  9.890161E-01  9.888150E-01  9.886362E-01  9.884747E-01  9.883270E-01  9.881907E-01  9.880638E-01  9.879447E-01
 9.878322E-01  9.877254E-01  9.876235E-01  9.875258E-01  9.874316E-01  9.873406E-01  9.872524E-01  9.871664E-01  9.870825E-01  9.870006E-01


SCALARS Permeability_X       float 1
LOOKUP_TABLE default
 1.000000E-12  1.000000E-12  1.000000E-12  1.000000E-12  1.000000E-12  1.000000E-12  1.000000E-12  1.000000E-12  1.000000E-12  1.000000E-12
 1.000000E-12  1.000000E-12  1.000000E-12  1.000000E-12  1.000000E-12  1.000000E-12  1.000000E-12  1.000000E-12  1.000000E-12  1.000000E-12


SCALARS Liquid_Pressure      float 1
LOOKUP_TABLE default
 7.500296E+06  7.500281E+06  7.500266E+06  7.500250E+06  7.500235E+06  7.500220E+06  7.500205E+06  7.500190E+06  7.500175E+06  7.500159E+06
 7.500144E+06  7.500129E+06  7.500114E+06  7.500099E+06  7.500083E+06  7.500068E+06  7.500053E+06  7.500038E+06  7.500023E+06  7.500008E+06


SCALARS Temperature          float 1
LOOKUP_TABLE default
 1.500000E+02  1.500000E+02  1.500000E+02  1.500000E+02  1.500000E+02  1.500000E+02  1.500000E+02  1.499999E+02  1.499999E+02  1.499999E+02
 1.499999E+02  1.499999E+02  1.499999E+02  1.499999E+02  1.499999E+02  1.499999E+02  1.499999E+02  1.499999E+02  1.500000E+02  1.500000E+02


SCALARS pH                   float 1
LOOKUP_TABLE default
 4.770236E+00  4.819486E+00  4.867659E+00  4.913841E+00  4.957652E+00  4.999007E+00  5.037972E+00  5.074693E+00  5.109342E+00  5.142101E+00
 5.173145E+00  5.202637E+00  5.230726E+00  5.257548E+00  5.283222E+00  5.307857E+00  5.331550E+00  5.354387E+00  5.376445E+00  5.397739E+00


SCALARS Total_H+             float 1
LOOKUP_TABLE default
-3.462570E-04 -3.705968E-04 -3.967203E-04 -4.242026E-04 -4.527550E-04 -4.821758E-04 -5.123231E-04 -5.430969E-04 -5.744275E-04 -6.062673E-04
-6.385850E-04 -6.713619E-04 -7.045884E-04 -7.382625E-04 -7.723880E-04 -8.069734E-04 -8.420308E-04 -8.775756E-04 -9.136258E-04 -9.501048E-04


SCALARS Total_SiO2(aq)       float 1
LOOKUP_TABLE default
 1.405461E-02  1.404971E-02  1.404463E-02  1.403937E-02  1.403392E-02  1.402826E-02  1.402241E-02  1.401635E-02  1.401010E-02  1.400366E-02
 1.399702E-02  1.399019E-02  1.398318E-02  1.397598E-02  1.396860E-02  1.396104E-02  1.395331E-02  1.394540E-02  1.393732E-02  1.392910E-02


SCALARS Total_Al+++          float 1
LOOKUP_TABLE default
 6.015348E-05  6.015348E-05  6.015348E-05  6.015348E-05  6.015348E-05  6.015348E-05  6.015348E-05  6.015348E-05  6.015348E-05  6.015348E-05
 6.015348E-05  6.015348E-05  6.015348E-05  6.015348E-05  6.015348E-05  6.015348E-05  6.015348E-05  6.015348E-05  6.015348E-05  6.015348E-05


SCALARS Total_Ca++           float 1
LOOKUP_TABLE default
 8.059558E-05  9.276549E-05  1.058272E-04  1.195684E-04  1.338446E-04  1.485550E-04  1.636286E-04  1.790155E-04  1.946808E-04  2.106007E-04
 2.267596E-04  2.431480E-04  2.597613E-04  2.765983E-04  2.936611E-04  3.109538E-04  3.284825E-04  3.462549E-04  3.642800E-04  3.825195E-04


SCALARS Total_Cl-            float 1
LOOKUP_TABLE default
 2.513233E-02  2.513233E-02  2.513233E-02  2.513233E-02  2.513233E-02  2.513233E-02  2.513233E-02  2.513233E-02  2.513233E-02  2.513233E-02
 2.513233E-02  2.513233E-02  2.513233E-02  2.513233E-02  2.513233E-02  2.513233E-02  2.513233E-02  2.513233E-02  2.513233E-02  2.513233E-02


SCALARS Total_CO2(aq)        float 1
LOOKUP_TABLE default
 1.357730E-02  1.358947E-02  1.360253E-02  1.361627E-02  1.363054E-02  1.364525E-02  1.366033E-02  1.367572E-02  1.369138E-02  1.370730E-02
 1.372346E-02  1.373985E-02  1.375646E-02  1.377330E-02  1.379036E-02  1.380765E-02  1.382518E-02  1.384295E-02  1.386098E-02  1.387922E-02


SCALARS Total_Na+            float 1
LOOKUP_TABLE default
 3.122900E-02  3.122900E-02  3.122900E-02  3.122900E-02  3.122900E-02  3.122900E-02  3.122900E-02  3.122900E-02  3.122900E-02  3.122900E-02
 3.122900E-02  3.122900E-02  3.122900E-02  3.122900E-02  3.122900E-02  3.122900E-02  3.122900E-02  3.122900E-02  3.122900E-02  3.122900E-02


SCALARS Total_K+             float 1
LOOKUP_TABLE default
 2.655416E-03  2.655416E-03  2.655416E-03  2.655416E-03  2.655416E-03  2.655416E-03  2.655416E-03  2.655416E-03  2.655416E-03  2.655416E-03
 2.655416E-03  2.655416E-03  2.655416E-03  2.655416E-03  2.655416E-03  2.655416E-03  2.655416E-03  2.655416E-03  2.655416E-03  2.655416E-03


SCALARS Total_Mg++           float 1
LOOKUP_TABLE default
 8.216757E-07  8.216757E-07  8.216757E-07  8.216757E-07  8.216757E-07  8.216757E-07  8.216757E-07  8.216757E-07  8.216757E-07  8.216757E-07
 8.216757E-07  8.216757E-07  8.216757E-07  8.216756E-07  8.216756E-07  8.216756E-07  8.216756E-07  8.216756E-07  8.216756E-07  8.216756E-07


SCALARS Total_Fe++           float 1
LOOKUP_TABLE default
 1.251593E-06  1.251593E-06  1.251593E-06  1.251593E-06  1.251593E-06  1.251593E-06  1.251593E-06  1.251593E-06  1.251593E-06  1.251593E-06
 1.251593E-06  1.251593E-06  1.251593E-06  1.251593E-06  1.251593E-06  1.251593E-06  1.251592E-06  1.251592E-06  1.251592E-06  1.251592E-06


SCALARS Total_Cu++           float 1
LOOKUP_TABLE default
 9.952832E-11  9.952832E-11  9.952832E-11  9.952832E-11  9.952832E-11  9.952832E-11  9.952832E-11  9.952832E-11  9.952832E-11  9.952832E-11
 9.952832E-11  9.952832E-11  9.952832E-11  9.952832E-11  9.952832E-11  9.952832E-11  9.952832E-11  9.952832E-11  9.952832E-11  9.952832E-11


SCALARS Total_SO4--          float 1
LOOKUP_TABLE default
 4.376188E-03  4.376188E-03  4.376188E-03  4.376188E-03  4.376188E-03  4.376188E-03  4.376188E-03  4.376188E-03  4.376188E-03  4.376188E-03
 4.376188E-03  4.376188E-03  4.376188E-03  4.376188E-03  4.376188E-03  4.376188E-03  4.376188E-03  4.376188E-03  4.376188E-03  4.376188E-03


SCALARS Total_Tracer         float 1
LOOKUP_TABLE default
 9.952832E-11  9.952832E-11  9.952832E-11  9.952832E-11  9.952832E-11  9.952832E-11  9.952832E-11  9.952832E-11  9.952832E-11  9.952832E-11
 9.952832E-11  9.952832E-11  9.952832E-11  9.952832E-11  9.952832E-11  9.952832E-11  9.952832E-11  9.952832E-11  9.952832E-11  9.952832E-11


SCALARS Active_Gas_CO2(g)    float 1
LOOKUP_TABLE default
 0.000000E+00  0.000000E+00  0.000000E+00  0.000000E+00  0.000000E+00  0.000000E+00  0.000000E+00  0.000000E+00  0.000000E+00  0.000000E+00
 0.000000E+00  0.000000E+00  0.000000E+00  0.000000E+00  0.000000E+00  0.000000E+00  0.000000E+00  0.000000E+00  0.000000E+00  0.000000E+00


SCALARS HCO3-                float 1
LOOKUP_TABLE default
 1.796515E-04  2.010886E-04  2.245081E-04  2.494917E-04  2.757312E-04  3.029976E-04  3.311212E-04  3.599773E-04  3.894751E-04  4.195489E-04
 4.501526E-04  4.812549E-04  5.128358E-04  5.448843E-04  5.773965E-04  6.103740E-04  6.438231E-04  6.777538E-04  7.121792E-04  7.470223E-04


SCALARS H2SiO4--             float 1
LOOKUP_TABLE default
 4.172698E-13  5.233595E-13  6.531723E-13  8.077366E-13  9.880226E-13  1.194940E-12  1.429366E-12  1.692178E-12  1.984274E-12  2.306598E-12
 2.660155E-12  3.046024E-12  3.465367E-12  3.919444E-12  4.409616E-12  4.937358E-12  5.504268E-12  6.112071E-12  6.762629E-12  7.456063E-12


SCALARS H3SiO4-              float 1
LOOKUP_TABLE default
 1.426489E-06  1.597244E-06  1.783990E-06  1.983430E-06  2.193132E-06  2.411292E-06  2.636576E-06  2.868002E-06  3.104857E-06  3.346630E-06
 3.592962E-06  3.843614E-06  4.098439E-06  4.357360E-06  4.620359E-06  4.887465E-06  5.158743E-06  5.434290E-06  5.714231E-06  5.997959E-06


SCALARS Calcite_VF           float 1
LOOKUP_TABLE default
 9.738237E-03  9.932571E-03  1.009239E-02  1.023035E-02  1.035253E-02  1.046263E-02  1.056320E-02  1.065613E-02  1.074282E-02  1.082441E-02
 1.090177E-02  1.097564E-02  1.104661E-02  1.111518E-02  1.118177E-02  1.124672E-02  1.131036E-02  1.137294E-02  1.143470E-02  1.149570E-02


SCALARS SiO2(am)_VF          float 1
LOOKUP_TABLE default
 7.317882E-04  8.152504E-04  8.866534E-04  9.495750E-04  1.006014E-03  1.057259E-03  1.104212E-03  1.147533E-03  1.187725E-03  1.225183E-03
 1.260220E-03  1.293091E-03  1.324006E-03  1.353142E-03  1.380645E-03  1.406643E-03  1.431243E-03  1.454539E-03  1.476612E-03  1.497481E-03


SCALARS Calcite_Rate         float 1
LOOKUP_TABLE default
-1.456124E-05 -1.619551E-05 -1.737791E-05 -1.827696E-05 -1.898337E-05 -1.955532E-05 -2.003259E-05 -2.044320E-05 -2.080730E-05 -2.113960E-05
-2.145103E-05 -2.174982E-05 -2.204226E-05 -2.233325E-05 -2.262664E-05 -2.292554E-05 -2.323248E-05 -2.354955E-05 -2.387856E-05 -2.422023E-05


SCALARS SiO2(am)_Rate        float 1
LOOKUP_TABLE default
 6.360561E-06  6.533403E-06  6.755298E-06  7.002169E-06  7.261442E-06  7.525987E-06  7.791636E-06  8.055944E-06  8.317508E-06  8.575569E-06
 8.829771E-06  9.080008E-06  9.326336E-06  9.568910E-06  9.807944E-06  1.004369E-05  1.027641E-05  1.050639E-05  1.073390E-05  1.095862E-05


SCALARS Calcite_Area         float 1
LOOKUP_TABLE default
 2.662001E-01  3.245308E-01  3.808355E-01  4.363311E-01  4.914235E-01  5.463365E-01  6.012512E-01  6.563429E-01  7.117914E-01  7.677818E-01
 8.245053E-01  8.821578E-01  9.409405E-01  1.001060E+00  1.062730E+00  1.126172E+00  1.191614E+00  1.259298E+00  1.329476E+00  1.402226E+00


SCALARS SiO2(am)_Area        float 1
LOOKUP_TABLE default
 1.110705E+05  1.071353E+05  1.041742E+05  1.018179E+05  9.987544E+04  9.823396E+04  9.682077E+04  9.558637E+04  9.449559E+04  9.352257E+04
 9.264778E+04  9.185613E+04  9.113575E+04  9.047716E+04  8.987263E+04  8.931584E+04  8.880153E+04  8.832530E+04  8.788341E+04  8.747369E+04


SCALARS Material_ID          int 1
LOOKUP_TABLE default
  1
  1
  1
  1
  1
  1
  1
  1
  1
  1
  1
  1
  1
  1
  1
  1
  1
  1
  1
  1


