# vtk DataFile Version 2.0
PFLOTRAN output
ASCII
DATASET UNSTRUCTURED_GRID
POINTS           84 float
 0.000000E+00  0.000000E+00  0.000000E+00
 7.580000E-03  0.000000E+00  0.000000E+00
 1.516000E-02  0.000000E+00  0.000000E+00
 2.274000E-02  0.000000E+00  0.000000E+00
 3.032000E-02  0.000000E+00  0.000000E+00
 3.790000E-02  0.000000E+00  0.000000E+00
 4.548000E-02  0.000000E+00  0.000000E+00
 5.306000E-02  0.000000E+00  0.000000E+00
 6.064000E-02  0.000000E+00  0.000000E+00
 6.822000E-02  0.000000E+00  0.000000E+00
 7.580000E-02  0.000000E+00  0.000000E+00
 8.338000E-02  0.000000E+00  0.000000E+00
 9.096000E-02  0.000000E+00  0.000000E+00
 9.854000E-02  0.000000E+00  0.000000E+00
 1.061200E-01  0.000000E+00  0.000000E+00
 1.137000E-01  0.000000E+00  0.000000E+00
 1.212800E-01  0.000000E+00  0.000000E+00
 1.288600E-01  0.000000E+00  0.000000E+00
 1.364400E-01  0.000000E+00  0.000000E+00
 1.440200E-01  0.000000E+00  0.000000E+00
 1.516000E-01  0.000000E+00  0.000000E+00
 0.000000E+00  1.125000E-02  0.000000E+00
 7.580000E-03  1.125000E-02  0.000000E+00
 1.516000E-02  1.125000E-02  0.000000E+00
 2.274000E-02  1.125000E-02  0.000000E+00
 3.032000E-02  1.125000E-02  0.000000E+00
 3.790000E-02  1.125000E-02  0.000000E+00
 4.548000E-02  1.125000E-02  0.000000E+00
 5.306000E-02  1.125000E-02  0.000000E+00
 6.064000E-02  1.125000E-02  0.000000E+00
 6.822000E-02  1.125000E-02  0.000000E+00
 7.580000E-02  1.125000E-02  0.000000E+00
 8.338000E-02  1.125000E-02  0.000000E+00
 9.096000E-02  1.125000E-02  0.000000E+00
 9.854000E-02  1.125000E-02  0.000000E+00
 1.061200E-01  1.125000E-02  0.000000E+00
 1.137000E-01  1.125000E-02  0.000000E+00
 1.212800E-01  1.125000E-02  0.000000E+00
 1.288600E-01  1.125000E-02  0.000000E+00
 1.364400E-01  1.125000E-02  0.000000E+00
 1.440200E-01  1.125000E-02  0.000000E+00
 1.516000E-01  1.125000E-02  0.000000E+00
 0.000000E+00  0.000000E+00  1.125000E-02
 7.580000E-03  0.000000E+00  1.125000E-02
 1.516000E-02  0.000000E+00  1.125000E-02
 2.274000E-02  0.000000E+00  1.125000E-02
 3.032000E-02  0.000000E+00  1.125000E-02
 3.790000E-02  0.000000E+00  1.125000E-02
 4.548000E-02  0.000000E+00  1.125000E-02
 5.306000E-02  0.000000E+00  1.125000E-02
 6.064000E-02  0.000000E+00  1.125000E-02
 6.822000E-02  0.000000E+00  1.125000E-02
 7.580000E-02  0.000000E+00  1.125000E-02
 8.338000E-02  0.000000E+00  1.125000E-02
 9.096000E-02  0.000000E+00  1.125000E-02
 9.854000E-02  0.000000E+00  1.125000E-02
 1.061200E-01  0.000000E+00  1.125000E-02
 1.137000E-01  0.000000E+00  1.125000E-02
 1.212800E-01  0.000000E+00  1.125000E-02
 1.288600E-01  0.000000E+00  1.125000E-02
 1.364400E-01  0.000000E+00  1.125000E-02
 1.440200E-01  0.000000E+00  1.125000E-02
 1.516000E-01  0.000000E+00  1.125000E-02
 0.000000E+00  1.125000E-02  1.125000E-02
 7.580000E-03  1.125000E-02  1.125000E-02
 1.516000E-02  1.125000E-02  1.125000E-02
 2.274000E-02  1.125000E-02  1.125000E-02
 3.032000E-02  1.125000E-02  1.125000E-02
 3.790000E-02  1.125000E-02  1.125000E-02
 4.548000E-02  1.125000E-02  1.125000E-02
 5.306000E-02  1.125000E-02  1.125000E-02
 6.064000E-02  1.125000E-02  1.125000E-02
 6.822000E-02  1.125000E-02  1.125000E-02
 7.580000E-02  1.125000E-02  1.125000E-02
 8.338000E-02  1.125000E-02  1.125000E-02
 9.096000E-02  1.125000E-02  1.125000E-02
 9.854000E-02  1.125000E-02  1.125000E-02
 1.061200E-01  1.125000E-02  1.125000E-02
 1.137000E-01  1.125000E-02  1.125000E-02
 1.212800E-01  1.125000E-02  1.125000E-02
 1.288600E-01  1.125000E-02  1.125000E-02
 1.364400E-01  1.125000E-02  1.125000E-02
 1.440200E-01  1.125000E-02  1.125000E-02
 1.516000E-01  1.125000E-02  1.125000E-02
CELLS           20          180
8        0        1       22       21       42       43       64       63
8        1        2       23       22       43       44       65       64
8        2        3       24       23       44       45       66       65
8        3        4       25       24       45       46       67       66
8        4        5       26       25       46       47       68       67
8        5        6       27       26       47       48       69       68
8        6        7       28       27       48       49       70       69
8        7        8       29       28       49       50       71       70
8        8        9       30       29       50       51       72       71
8        9       10       31       30       51       52       73       72
8       10       11       32       31       52       53       74       73
8       11       12       33       32       53       54       75       74
8       12       13       34       33       54       55       76       75
8       13       14       35       34       55       56       77       76
8       14       15       36       35       56       57       78       77
8       15       16       37       36       57       58       79       78
8       16       17       38       37       58       59       80       79
8       17       18       39       38       59       60       81       80
8       18       19       40       39       60       61       82       81
8       19       20       41       40       61       62       83       82

CELL_TYPES           20
12
12
12
12
12
12
12
12
12
12
12
12
12
12
12
12
12
12
12
12

CELL_DATA       20
SCALARS Porosity             float 1
LOOKUP_TABLE default
 9.850152E-01  9.849423E-01  9.849076E-01  9.848856E-01  9.848697E-01  9.848575E-01  9.848477E-01  9.848398E-01  9.848333E-01  9.848280E-01
 9.848236E-01  9.848200E-01  9.848171E-01  9.848148E-01  9.848129E-01  9.848114E-01  9.848101E-01  9.848092E-01  9.848084E-01  9.848078E-01


SCALARS Permeability_X       float 1
LOOKUP_TABLE default
 1.000000E-12  1.000000E-12  1.000000E-12  1.000000E-12  1.000000E-12  1.000000E-12  1.000000E-12  1.000000E-12  1.000000E-12  1.000000E-12
 1.000000E-12  1.000000E-12  1.000000E-12  1.000000E-12  1.000000E-12  1.000000E-12  1.000000E-12  1.000000E-12  1.000000E-12  1.000000E-12


SCALARS Liquid_Pressure      float 1
LOOKUP_TABLE default
 7.500296E+06  7.500281E+06  7.500266E+06  7.500250E+06  7.500235E+06  7.500220E+06  7.500205E+06  7.500190E+06  7.500175E+06  7.500159E+06
 7.500144E+06  7.500129E+06  7.500114E+06  7.500099E+06  7.500083E+06  7.500068E+06  7.500053E+06  7.500038E+06  7.500023E+06  7.500008E+06


SCALARS Temperature          float 1
LOOKUP_TABLE default
 1.500000E+02  1.500000E+02  1.499999E+02  1.499999E+02  1.499999E+02  1.499999E+02  1.499999E+02  1.499999E+02  1.499999E+02  1.499999E+02
 1.499999E+02  1.499999E+02  1.499999E+02  1.499999E+02  1.499999E+02  1.499999E+02  1.499999E+02  1.499999E+02  1.500000E+02  1.500000E+02


SCALARS pH                   float 1
LOOKUP_TABLE default
 5.348850E+00  5.546669E+00  5.660757E+00  5.738837E+00  5.796693E+00  5.841492E+00  5.877118E+00  5.905938E+00  5.929513E+00  5.948943E+00
 5.965033E+00  5.978399E+00  5.989522E+00  5.998785E+00  6.006500E+00  6.012921E+00  6.018260E+00  6.022694E+00  6.026369E+00  6.029404E+00


SCALARS Total_H+             float 1
LOOKUP_TABLE default
-8.688303E-04 -1.258315E-03 -1.570976E-03 -1.832993E-03 -2.056701E-03 -2.249263E-03 -2.415505E-03 -2.559049E-03 -2.682822E-03 -2.789310E-03
-2.880676E-03 -2.958836E-03 -3.025494E-03 -3.082166E-03 -3.130201E-03 -3.170792E-03 -3.204993E-03 -3.233729E-03 -3.257807E-03 -3.277893E-03


SCALARS Total_SiO2(aq)       float 1
LOOKUP_TABLE default
 1.404034E-02  1.401599E-02  1.398806E-02  1.395750E-02  1.392491E-02  1.389078E-02  1.385546E-02  1.381931E-02  1.378259E-02  1.374558E-02
 1.370852E-02  1.367162E-02  1.363510E-02  1.359915E-02  1.356392E-02  1.352957E-02  1.349623E-02  1.346401E-02  1.343300E-02  1.340335E-02


SCALARS Total_Al+++          float 1
LOOKUP_TABLE default
 6.015348E-05  6.015347E-05  6.015343E-05  6.015331E-05  6.015305E-05  6.015252E-05  6.015157E-05  6.015004E-05  6.014771E-05  6.014439E-05
 6.013988E-05  6.013403E-05  6.012669E-05  6.011778E-05  6.010725E-05  6.009509E-05  6.008136E-05  6.006613E-05  6.004952E-05  6.003173E-05


SCALARS Total_Ca++           float 1
LOOKUP_TABLE default
 3.418822E-04  5.366246E-04  6.929551E-04  8.239638E-04  9.358183E-04  1.032101E-03  1.115224E-03  1.186999E-03  1.248891E-03  1.302142E-03
 1.347835E-03  1.386927E-03  1.420272E-03  1.448628E-03  1.472668E-03  1.492990E-03  1.510121E-03  1.524522E-03  1.536597E-03  1.546679E-03


SCALARS Total_Cl-            float 1
LOOKUP_TABLE default
 2.513233E-02  2.513234E-02  2.513234E-02  2.513236E-02  2.513241E-02  2.513251E-02  2.513268E-02  2.513296E-02  2.513338E-02  2.513398E-02
 2.513479E-02  2.513585E-02  2.513718E-02  2.513879E-02  2.514069E-02  2.514289E-02  2.514537E-02  2.514812E-02  2.515112E-02  2.515433E-02


SCALARS Total_CO2(aq)        float 1
LOOKUP_TABLE default
 1.383858E-02  1.403333E-02  1.418966E-02  1.432068E-02  1.443256E-02  1.452889E-02  1.461211E-02  1.468403E-02  1.474614E-02  1.479971E-02
 1.484584E-02  1.488549E-02  1.491954E-02  1.494875E-02  1.497380E-02  1.499529E-02  1.501374E-02  1.502960E-02  1.504327E-02  1.505505E-02


SCALARS Total_Na+            float 1
LOOKUP_TABLE default
 3.122900E-02  3.122900E-02  3.122901E-02  3.122904E-02  3.122910E-02  3.122922E-02  3.122943E-02  3.122977E-02  3.123030E-02  3.123104E-02
 3.123206E-02  3.123337E-02  3.123502E-02  3.123702E-02  3.123939E-02  3.124212E-02  3.124520E-02  3.124862E-02  3.125235E-02  3.125634E-02


SCALARS Total_K+             float 1
LOOKUP_TABLE default
 2.655416E-03  2.655416E-03  2.655417E-03  2.655419E-03  2.655424E-03  2.655434E-03  2.655452E-03  2.655481E-03  2.655526E-03  2.655589E-03
 2.655675E-03  2.655787E-03  2.655927E-03  2.656098E-03  2.656299E-03  2.656531E-03  2.656793E-03  2.657084E-03  2.657401E-03  2.657740E-03


SCALARS Total_Mg++           float 1
LOOKUP_TABLE default
 8.216757E-07  8.216757E-07  8.216760E-07  8.216766E-07  8.216782E-07  8.216813E-07  8.216869E-07  8.216960E-07  8.217097E-07  8.217294E-07
 8.217560E-07  8.217906E-07  8.218339E-07  8.218866E-07  8.219488E-07  8.220206E-07  8.221017E-07  8.221916E-07  8.222896E-07  8.223945E-07


SCALARS Total_Fe++           float 1
LOOKUP_TABLE default
 1.251593E-06  1.251593E-06  1.251593E-06  1.251594E-06  1.251596E-06  1.251601E-06  1.251610E-06  1.251623E-06  1.251644E-06  1.251674E-06
 1.251715E-06  1.251768E-06  1.251834E-06  1.251914E-06  1.252009E-06  1.252118E-06  1.252242E-06  1.252379E-06  1.252528E-06  1.252688E-06


SCALARS Total_Cu++           float 1
LOOKUP_TABLE default
 9.952832E-11  9.952833E-11  9.952836E-11  9.952844E-11  9.952863E-11  9.952900E-11  9.952968E-11  9.953078E-11  9.953245E-11  9.953483E-11
 9.953806E-11  9.954225E-11  9.954750E-11  9.955388E-11  9.956142E-11  9.957012E-11  9.957995E-11  9.959084E-11  9.960272E-11  9.961545E-11


SCALARS Total_SO4--          float 1
LOOKUP_TABLE default
 4.376188E-03  4.376189E-03  4.376190E-03  4.376193E-03  4.376202E-03  4.376219E-03  4.376248E-03  4.376297E-03  4.376371E-03  4.376476E-03
 4.376618E-03  4.376803E-03  4.377035E-03  4.377316E-03  4.377649E-03  4.378033E-03  4.378467E-03  4.378947E-03  4.379471E-03  4.380033E-03


SCALARS Total_Tracer         float 1
LOOKUP_TABLE default
 9.952812E-11  9.952665E-11  9.952074E-11  9.950367E-11  9.946379E-11  9.938387E-11  9.924122E-11  9.900876E-11  9.865668E-11  9.815463E-11
 9.747381E-11  9.658904E-11  9.548029E-11  9.413381E-11  9.254269E-11  9.070700E-11  8.863340E-11  8.633451E-11  8.382807E-11  8.114358E-11


SCALARS Active_Gas_CO2(g)    float 1
LOOKUP_TABLE default
 0.000000E+00  0.000000E+00  0.000000E+00  0.000000E+00  0.000000E+00  0.000000E+00  0.000000E+00  0.000000E+00  0.000000E+00  0.000000E+00
 0.000000E+00  0.000000E+00  0.000000E+00  0.000000E+00  0.000000E+00  0.000000E+00  0.000000E+00  0.000000E+00  0.000000E+00  0.000000E+00


SCALARS HCO3-                float 1
LOOKUP_TABLE default
 6.693700E-04  1.041272E-03  1.339042E-03  1.587610E-03  1.799008E-03  1.980313E-03  2.136323E-03  2.270637E-03  2.386157E-03  2.485324E-03
 2.570252E-03  2.642792E-03  2.704582E-03  2.757066E-03  2.801522E-03  2.839075E-03  2.870713E-03  2.897299E-03  2.919587E-03  2.938194E-03


SCALARS H2SiO4--             float 1
LOOKUP_TABLE default
 5.998511E-12  1.491435E-11  2.520425E-11  3.607146E-11  4.701921E-11  5.769888E-11  6.786243E-11  7.734060E-11  8.602841E-11  9.387296E-11
 1.008624E-10  1.070158E-10  1.123745E-10  1.169945E-10  1.209403E-10  1.242803E-10  1.270833E-10  1.294157E-10  1.313402E-10  1.329115E-10


SCALARS H3SiO4-              float 1
LOOKUP_TABLE default
 5.401943E-06  8.505586E-06  1.104080E-05  1.318848E-05  1.503457E-05  1.662920E-05  1.800670E-05  1.919355E-05  2.021190E-05  2.108125E-05
 2.181918E-05  2.244168E-05  2.296334E-05  2.339741E-05  2.375583E-05  2.404934E-05  2.428749E-05  2.447873E-05  2.463045E-05  2.474894E-05


SCALARS Calcite_VF           float 1
LOOKUP_TABLE default
 1.482229E-02  1.490526E-02  1.494447E-02  1.496939E-02  1.498754E-02  1.500173E-02  1.501323E-02  1.502274E-02  1.503067E-02  1.503731E-02
 1.504286E-02  1.504749E-02  1.505135E-02  1.505456E-02  1.505721E-02  1.505939E-02  1.506119E-02  1.506266E-02  1.506386E-02  1.506484E-02


SCALARS SiO2(am)_VF          float 1
LOOKUP_TABLE default
 1.160783E-04  1.203903E-04  1.232118E-04  1.252325E-04  1.267340E-04  1.278658E-04  1.287208E-04  1.293624E-04  1.298372E-04  1.301805E-04
 1.304202E-04  1.305783E-04  1.306725E-04  1.307173E-04  1.307242E-04  1.307025E-04  1.306597E-04  1.306018E-04  1.305335E-04  1.304589E-04


SCALARS Calcite_Rate         float 1
LOOKUP_TABLE default
-3.448375E-04 -2.496432E-04 -2.016941E-04 -1.696686E-04 -1.452453E-04 -1.252887E-04 -1.083773E-04 -9.378079E-05 -8.107939E-05 -7.000220E-05
-6.035233E-05 -5.197107E-05 -4.472073E-05 -3.847673E-05 -3.312427E-05 -2.855716E-05 -2.467763E-05 -2.139632E-05 -1.863235E-05 -1.631732E-05


SCALARS SiO2(am)_Rate        float 1
LOOKUP_TABLE default
 2.505635E-05  3.186293E-05  3.642945E-05  3.978880E-05  4.235434E-05  4.434109E-05  4.588026E-05  4.706118E-05  4.794964E-05  4.859687E-05
 4.904435E-05  4.932654E-05  4.947251E-05  4.950710E-05  4.945155E-05  4.932412E-05  4.914042E-05  4.891379E-05  4.865555E-05  4.837602E-05


SCALARS Calcite_Area         float 1
LOOKUP_TABLE default
 1.825440E+01  1.912417E+01  1.954241E+01  1.980965E+01  2.000431E+01  2.015595E+01  2.027827E+01  2.037867E+01  2.046173E+01  2.053057E+01
 2.058758E+01  2.063466E+01  2.067342E+01  2.070520E+01  2.073115E+01  2.075227E+01  2.076940E+01  2.078324E+01  2.079439E+01  2.080333E+01


SCALARS SiO2(am)_Area        float 1
LOOKUP_TABLE default
 2.066780E+05  2.045634E+05  2.032328E+05  2.023063E+05  2.016330E+05  2.011345E+05  2.007636E+05  2.004885E+05  2.002869E+05  2.001418E+05
 2.000406E+05  1.999731E+05  1.999316E+05  1.999098E+05  1.999029E+05  1.999068E+05  1.999187E+05  1.999360E+05  1.999569E+05  1.999800E+05


SCALARS Material_ID          int 1
LOOKUP_TABLE default
  1
  1
  1
  1
  1
  1
  1
  1
  1
  1
  1
  1
  1
  1
  1
  1
  1
  1
  1
  1


