# vtk DataFile Version 2.0
PFLOTRAN output
ASCII
DATASET UNSTRUCTURED_GRID
POINTS           84 float
 0.000000E+00  0.000000E+00  0.000000E+00
 7.580000E-03  0.000000E+00  0.000000E+00
 1.516000E-02  0.000000E+00  0.000000E+00
 2.274000E-02  0.000000E+00  0.000000E+00
 3.032000E-02  0.000000E+00  0.000000E+00
 3.790000E-02  0.000000E+00  0.000000E+00
 4.548000E-02  0.000000E+00  0.000000E+00
 5.306000E-02  0.000000E+00  0.000000E+00
 6.064000E-02  0.000000E+00  0.000000E+00
 6.822000E-02  0.000000E+00  0.000000E+00
 7.580000E-02  0.000000E+00  0.000000E+00
 8.338000E-02  0.000000E+00  0.000000E+00
 9.096000E-02  0.000000E+00  0.000000E+00
 9.854000E-02  0.000000E+00  0.000000E+00
 1.061200E-01  0.000000E+00  0.000000E+00
 1.137000E-01  0.000000E+00  0.000000E+00
 1.212800E-01  0.000000E+00  0.000000E+00
 1.288600E-01  0.000000E+00  0.000000E+00
 1.364400E-01  0.000000E+00  0.000000E+00
 1.440200E-01  0.000000E+00  0.000000E+00
 1.516000E-01  0.000000E+00  0.000000E+00
 0.000000E+00  1.125000E-02  0.000000E+00
 7.580000E-03  1.125000E-02  0.000000E+00
 1.516000E-02  1.125000E-02  0.000000E+00
 2.274000E-02  1.125000E-02  0.000000E+00
 3.032000E-02  1.125000E-02  0.000000E+00
 3.790000E-02  1.125000E-02  0.000000E+00
 4.548000E-02  1.125000E-02  0.000000E+00
 5.306000E-02  1.125000E-02  0.000000E+00
 6.064000E-02  1.125000E-02  0.000000E+00
 6.822000E-02  1.125000E-02  0.000000E+00
 7.580000E-02  1.125000E-02  0.000000E+00
 8.338000E-02  1.125000E-02  0.000000E+00
 9.096000E-02  1.125000E-02  0.000000E+00
 9.854000E-02  1.125000E-02  0.000000E+00
 1.061200E-01  1.125000E-02  0.000000E+00
 1.137000E-01  1.125000E-02  0.000000E+00
 1.212800E-01  1.125000E-02  0.000000E+00
 1.288600E-01  1.125000E-02  0.000000E+00
 1.364400E-01  1.125000E-02  0.000000E+00
 1.440200E-01  1.125000E-02  0.000000E+00
 1.516000E-01  1.125000E-02  0.000000E+00
 0.000000E+00  0.000000E+00  1.125000E-02
 7.580000E-03  0.000000E+00  1.125000E-02
 1.516000E-02  0.000000E+00  1.125000E-02
 2.274000E-02  0.000000E+00  1.125000E-02
 3.032000E-02  0.000000E+00  1.125000E-02
 3.790000E-02  0.000000E+00  1.125000E-02
 4.548000E-02  0.000000E+00  1.125000E-02
 5.306000E-02  0.000000E+00  1.125000E-02
 6.064000E-02  0.000000E+00  1.125000E-02
 6.822000E-02  0.000000E+00  1.125000E-02
 7.580000E-02  0.000000E+00  1.125000E-02
 8.338000E-02  0.000000E+00  1.125000E-02
 9.096000E-02  0.000000E+00  1.125000E-02
 9.854000E-02  0.000000E+00  1.125000E-02
 1.061200E-01  0.000000E+00  1.125000E-02
 1.137000E-01  0.000000E+00  1.125000E-02
 1.212800E-01  0.000000E+00  1.125000E-02
 1.288600E-01  0.000000E+00  1.125000E-02
 1.364400E-01  0.000000E+00  1.125000E-02
 1.440200E-01  0.000000E+00  1.125000E-02
 1.516000E-01  0.000000E+00  1.125000E-02
 0.000000E+00  1.125000E-02  1.125000E-02
 7.580000E-03  1.125000E-02  1.125000E-02
 1.516000E-02  1.125000E-02  1.125000E-02
 2.274000E-02  1.125000E-02  1.125000E-02
 3.032000E-02  1.125000E-02  1.125000E-02
 3.790000E-02  1.125000E-02  1.125000E-02
 4.548000E-02  1.125000E-02  1.125000E-02
 5.306000E-02  1.125000E-02  1.125000E-02
 6.064000E-02  1.125000E-02  1.125000E-02
 6.822000E-02  1.125000E-02  1.125000E-02
 7.580000E-02  1.125000E-02  1.125000E-02
 8.338000E-02  1.125000E-02  1.125000E-02
 9.096000E-02  1.125000E-02  1.125000E-02
 9.854000E-02  1.125000E-02  1.125000E-02
 1.061200E-01  1.125000E-02  1.125000E-02
 1.137000E-01  1.125000E-02  1.125000E-02
 1.212800E-01  1.125000E-02  1.125000E-02
 1.288600E-01  1.125000E-02  1.125000E-02
 1.364400E-01  1.125000E-02  1.125000E-02
 1.440200E-01  1.125000E-02  1.125000E-02
 1.516000E-01  1.125000E-02  1.125000E-02
CELLS           20          180
8        0        1       22       21       42       43       64       63
8        1        2       23       22       43       44       65       64
8        2        3       24       23       44       45       66       65
8        3        4       25       24       45       46       67       66
8        4        5       26       25       46       47       68       67
8        5        6       27       26       47       48       69       68
8        6        7       28       27       48       49       70       69
8        7        8       29       28       49       50       71       70
8        8        9       30       29       50       51       72       71
8        9       10       31       30       51       52       73       72
8       10       11       32       31       52       53       74       73
8       11       12       33       32       53       54       75       74
8       12       13       34       33       54       55       76       75
8       13       14       35       34       55       56       77       76
8       14       15       36       35       56       57       78       77
8       15       16       37       36       57       58       79       78
8       16       17       38       37       58       59       80       79
8       17       18       39       38       59       60       81       80
8       18       19       40       39       60       61       82       81
8       19       20       41       40       61       62       83       82

CELL_TYPES           20
12
12
12
12
12
12
12
12
12
12
12
12
12
12
12
12
12
12
12
12

CELL_DATA       20
SCALARS Porosity             float 1
LOOKUP_TABLE default
 9.893454E-01  9.890397E-01  9.887904E-01  9.885773E-01  9.883903E-01  9.882231E-01  9.880713E-01  9.879320E-01  9.878027E-01  9.876817E-01
 9.875676E-01  9.874592E-01  9.873556E-01  9.872562E-01  9.871601E-01  9.870671E-01  9.869764E-01  9.868879E-01  9.868011E-01  9.867160E-01


SCALARS Permeability_X       float 1
LOOKUP_TABLE default
 1.000000E-12  1.000000E-12  1.000000E-12  1.000000E-12  1.000000E-12  1.000000E-12  1.000000E-12  1.000000E-12  1.000000E-12  1.000000E-12
 1.000000E-12  1.000000E-12  1.000000E-12  1.000000E-12  1.000000E-12  1.000000E-12  1.000000E-12  1.000000E-12  1.000000E-12  1.000000E-12


SCALARS Liquid_Pressure      float 1
LOOKUP_TABLE default
 7.500296E+06  7.500281E+06  7.500266E+06  7.500250E+06  7.500235E+06  7.500220E+06  7.500205E+06  7.500190E+06  7.500175E+06  7.500159E+06
 7.500144E+06  7.500129E+06  7.500114E+06  7.500099E+06  7.500083E+06  7.500068E+06  7.500053E+06  7.500038E+06  7.500023E+06  7.500008E+06


SCALARS Temperature          float 1
LOOKUP_TABLE default
 1.500000E+02  1.500000E+02  1.500000E+02  1.500000E+02  1.500000E+02  1.499999E+02  1.499999E+02  1.499999E+02  1.499999E+02  1.499999E+02
 1.499999E+02  1.499999E+02  1.499999E+02  1.499999E+02  1.499999E+02  1.499999E+02  1.499999E+02  1.499999E+02  1.499999E+02  1.500000E+02


SCALARS pH                   float 1
LOOKUP_TABLE default
 4.782790E+00  4.843592E+00  4.901614E+00  4.955924E+00  5.006364E+00  5.053117E+00  5.096502E+00  5.136870E+00  5.174563E+00  5.209891E+00
 5.243130E+00  5.274521E+00  5.304275E+00  5.332573E+00  5.359573E+00  5.385415E+00  5.410216E+00  5.434083E+00  5.457107E+00  5.479312E+00


SCALARS Total_H+             float 1
LOOKUP_TABLE default
-3.522511E-04 -3.833641E-04 -4.166775E-04 -4.515803E-04 -4.876818E-04 -5.247267E-04 -5.625471E-04 -6.010334E-04 -6.401159E-04 -6.797524E-04
-7.199210E-04 -7.606138E-04 -8.018337E-04 -8.435916E-04 -8.859045E-04 -9.287942E-04 -9.722862E-04 -1.016409E-03 -1.061194E-03 -1.106552E-03


SCALARS Total_SiO2(aq)       float 1
LOOKUP_TABLE default
 1.405434E-02  1.404909E-02  1.404360E-02  1.403785E-02  1.403184E-02  1.402557E-02  1.401905E-02  1.401227E-02  1.400525E-02  1.399798E-02
 1.399048E-02  1.398274E-02  1.397478E-02  1.396660E-02  1.395819E-02  1.394957E-02  1.394074E-02  1.393169E-02  1.392244E-02  1.391301E-02


SCALARS Total_Al+++          float 1
LOOKUP_TABLE default
 6.015348E-05  6.015348E-05  6.015348E-05  6.015348E-05  6.015348E-05  6.015348E-05  6.015348E-05  6.015348E-05  6.015348E-05  6.015348E-05
 6.015348E-05  6.015348E-05  6.015348E-05  6.015348E-05  6.015348E-05  6.015348E-05  6.015348E-05  6.015348E-05  6.015348E-05  6.015348E-05


SCALARS Total_Ca++           float 1
LOOKUP_TABLE default
 8.359262E-05  9.914913E-05  1.158058E-04  1.332572E-04  1.513080E-04  1.698304E-04  1.887406E-04  2.079838E-04  2.275250E-04  2.473433E-04
 2.674276E-04  2.877740E-04  3.083839E-04  3.292629E-04  3.504193E-04  3.718642E-04  3.936102E-04  4.156717E-04  4.380640E-04  4.607432E-04


SCALARS Total_Cl-            float 1
LOOKUP_TABLE default
 2.513233E-02  2.513233E-02  2.513233E-02  2.513233E-02  2.513233E-02  2.513233E-02  2.513233E-02  2.513233E-02  2.513233E-02  2.513233E-02
 2.513233E-02  2.513233E-02  2.513233E-02  2.513233E-02  2.513233E-02  2.513233E-02  2.513233E-02  2.513233E-02  2.513233E-02  2.513233E-02


SCALARS Total_CO2(aq)        float 1
LOOKUP_TABLE default
 1.358029E-02  1.359585E-02  1.361251E-02  1.362996E-02  1.364801E-02  1.366653E-02  1.368544E-02  1.370468E-02  1.372422E-02  1.374404E-02
 1.376413E-02  1.378447E-02  1.380508E-02  1.382596E-02  1.384712E-02  1.386856E-02  1.389031E-02  1.391237E-02  1.393476E-02  1.395744E-02


SCALARS Total_Na+            float 1
LOOKUP_TABLE default
 3.122900E-02  3.122900E-02  3.122900E-02  3.122900E-02  3.122900E-02  3.122900E-02  3.122900E-02  3.122900E-02  3.122900E-02  3.122900E-02
 3.122900E-02  3.122900E-02  3.122900E-02  3.122900E-02  3.122900E-02  3.122900E-02  3.122900E-02  3.122900E-02  3.122900E-02  3.122900E-02


SCALARS Total_K+             float 1
LOOKUP_TABLE default
 2.655416E-03  2.655416E-03  2.655416E-03  2.655416E-03  2.655416E-03  2.655416E-03  2.655416E-03  2.655416E-03  2.655416E-03  2.655416E-03
 2.655416E-03  2.655416E-03  2.655416E-03  2.655416E-03  2.655416E-03  2.655416E-03  2.655416E-03  2.655416E-03  2.655416E-03  2.655416E-03


SCALARS Total_Mg++           float 1
LOOKUP_TABLE default
 8.216757E-07  8.216757E-07  8.216757E-07  8.216757E-07  8.216757E-07  8.216757E-07  8.216757E-07  8.216757E-07  8.216757E-07  8.216757E-07
 8.216757E-07  8.216757E-07  8.216757E-07  8.216756E-07  8.216756E-07  8.216756E-07  8.216756E-07  8.216756E-07  8.216756E-07  8.216756E-07


SCALARS Total_Fe++           float 1
LOOKUP_TABLE default
 1.251593E-06  1.251593E-06  1.251593E-06  1.251593E-06  1.251593E-06  1.251593E-06  1.251593E-06  1.251593E-06  1.251593E-06  1.251593E-06
 1.251593E-06  1.251593E-06  1.251593E-06  1.251593E-06  1.251593E-06  1.251592E-06  1.251592E-06  1.251592E-06  1.251592E-06  1.251592E-06


SCALARS Total_Cu++           float 1
LOOKUP_TABLE default
 9.952832E-11  9.952832E-11  9.952832E-11  9.952832E-11  9.952832E-11  9.952832E-11  9.952832E-11  9.952832E-11  9.952832E-11  9.952832E-11
 9.952832E-11  9.952832E-11  9.952832E-11  9.952832E-11  9.952832E-11  9.952832E-11  9.952832E-11  9.952832E-11  9.952832E-11  9.952832E-11


SCALARS Total_SO4--          float 1
LOOKUP_TABLE default
 4.376188E-03  4.376188E-03  4.376188E-03  4.376188E-03  4.376188E-03  4.376188E-03  4.376188E-03  4.376188E-03  4.376188E-03  4.376188E-03
 4.376188E-03  4.376188E-03  4.376188E-03  4.376188E-03  4.376188E-03  4.376188E-03  4.376188E-03  4.376188E-03  4.376188E-03  4.376188E-03


SCALARS Total_Tracer         float 1
LOOKUP_TABLE default
 9.952832E-11  9.952832E-11  9.952832E-11  9.952832E-11  9.952832E-11  9.952832E-11  9.952832E-11  9.952832E-11  9.952832E-11  9.952832E-11
 9.952832E-11  9.952832E-11  9.952832E-11  9.952832E-11  9.952832E-11  9.952832E-11  9.952832E-11  9.952832E-11  9.952832E-11  9.952832E-11


SCALARS Active_Gas_CO2(g)    float 1
LOOKUP_TABLE default
 0.000000E+00  0.000000E+00  0.000000E+00  0.000000E+00  0.000000E+00  0.000000E+00  0.000000E+00  0.000000E+00  0.000000E+00  0.000000E+00
 0.000000E+00  0.000000E+00  0.000000E+00  0.000000E+00  0.000000E+00  0.000000E+00  0.000000E+00  0.000000E+00  0.000000E+00  0.000000E+00


SCALARS HCO3-                float 1
LOOKUP_TABLE default
 1.848902E-04  2.124881E-04  2.426206E-04  2.746464E-04  3.081207E-04  3.427349E-04  3.782760E-04  4.145979E-04  4.516018E-04  4.892229E-04
 5.274205E-04  5.661719E-04  6.054676E-04  6.453079E-04  6.857008E-04  7.266603E-04  7.682046E-04  8.103559E-04  8.531388E-04  8.964651E-04


SCALARS H2SiO4--             float 1
LOOKUP_TABLE default
 4.421047E-13  5.848059E-13  7.637202E-13  9.804624E-13  1.236462E-12  1.533033E-12  1.871455E-12  2.253040E-12  2.679174E-12  3.151353E-12
 3.671209E-12  4.240528E-12  4.861267E-12  5.535568E-12  6.265774E-12  7.054437E-12  7.904333E-12  8.818476E-12  9.800123E-12  1.084993E-11


SCALARS H3SiO4-              float 1
LOOKUP_TABLE default
 1.468301E-06  1.688343E-06  1.928939E-06  2.185034E-06  2.453123E-06  2.730774E-06  3.016312E-06  3.308589E-06  3.606834E-06  3.910545E-06
 4.219414E-06  4.533277E-06  4.852077E-06  5.175838E-06  5.504648E-06  5.838645E-06  6.178007E-06  6.522941E-06  6.873683E-06  7.229542E-06


SCALARS Calcite_VF           float 1
LOOKUP_TABLE default
 9.999333E-03  1.022344E-02  1.040418E-02  1.055766E-02  1.069178E-02  1.081140E-02  1.091985E-02  1.101952E-02  1.111222E-02  1.119932E-02
 1.128191E-02  1.136085E-02  1.143684E-02  1.151047E-02  1.158221E-02  1.165248E-02  1.172162E-02  1.178993E-02  1.185768E-02  1.192492E-02


SCALARS SiO2(am)_VF          float 1
LOOKUP_TABLE default
 6.499814E-04  7.307610E-04  7.988449E-04  8.581503E-04  9.108465E-04  9.583152E-04  1.001508E-03  1.041113E-03  1.077649E-03  1.111514E-03
 1.143025E-03  1.172435E-03  1.199951E-03  1.225746E-03  1.249962E-03  1.272721E-03  1.294126E-03  1.314267E-03  1.333219E-03  1.351007E-03


SCALARS Calcite_Rate         float 1
LOOKUP_TABLE default
-1.855932E-05 -2.069955E-05 -2.215662E-05 -2.320610E-05 -2.399514E-05 -2.461394E-05 -2.512078E-05 -2.555452E-05 -2.594171E-05 -2.630087E-05
-2.664520E-05 -2.698426E-05 -2.732513E-05 -2.767313E-05 -2.803232E-05 -2.840587E-05 -2.879628E-05 -2.920553E-05 -2.963524E-05 -3.008564E-05


SCALARS SiO2(am)_Rate        float 1
LOOKUP_TABLE default
 6.726808E-06  6.992381E-06  7.309919E-06  7.648935E-06  7.994782E-06  8.339990E-06  8.680744E-06  9.015201E-06  9.342607E-06  9.662815E-06
 9.976023E-06  1.028261E-05  1.058304E-05  1.087784E-05  1.116753E-05  1.145263E-05  1.173363E-05  1.201102E-05  1.228524E-05  1.255600E-05


SCALARS Calcite_Area         float 1
LOOKUP_TABLE default
 3.473280E-01  4.338007E-01  5.171103E-01  5.988244E-01  6.795183E-01  7.595861E-01  8.393927E-01  9.193046E-01  9.996933E-01  1.080934E+00
 1.163404E+00  1.247485E+00  1.333563E+00  1.422030E+00  1.513290E+00  1.607758E+00  1.705871E+00  1.808082E+00  1.914872E+00  2.026463E+00


SCALARS SiO2(am)_Area        float 1
LOOKUP_TABLE default
 1.155674E+05  1.111327E+05  1.078766E+05  1.053293E+05  1.032561E+05  1.015215E+05  1.000402E+05  9.875511E+04  9.762633E+04  9.662484E+04
 9.572898E+04  9.492218E+04  9.419148E+04  9.352661E+04  9.291927E+04  9.236269E+04  9.185127E+04  9.138035E+04  9.094600E+04  9.054584E+04


SCALARS Material_ID          int 1
LOOKUP_TABLE default
  1
  1
  1
  1
  1
  1
  1
  1
  1
  1
  1
  1
  1
  1
  1
  1
  1
  1
  1
  1


