# vtk DataFile Version 2.0
PFLOTRAN output
ASCII
DATASET UNSTRUCTURED_GRID
POINTS           84 float
 0.000000E+00  0.000000E+00  0.000000E+00
 7.580000E-03  0.000000E+00  0.000000E+00
 1.516000E-02  0.000000E+00  0.000000E+00
 2.274000E-02  0.000000E+00  0.000000E+00
 3.032000E-02  0.000000E+00  0.000000E+00
 3.790000E-02  0.000000E+00  0.000000E+00
 4.548000E-02  0.000000E+00  0.000000E+00
 5.306000E-02  0.000000E+00  0.000000E+00
 6.064000E-02  0.000000E+00  0.000000E+00
 6.822000E-02  0.000000E+00  0.000000E+00
 7.580000E-02  0.000000E+00  0.000000E+00
 8.338000E-02  0.000000E+00  0.000000E+00
 9.096000E-02  0.000000E+00  0.000000E+00
 9.854000E-02  0.000000E+00  0.000000E+00
 1.061200E-01  0.000000E+00  0.000000E+00
 1.137000E-01  0.000000E+00  0.000000E+00
 1.212800E-01  0.000000E+00  0.000000E+00
 1.288600E-01  0.000000E+00  0.000000E+00
 1.364400E-01  0.000000E+00  0.000000E+00
 1.440200E-01  0.000000E+00  0.000000E+00
 1.516000E-01  0.000000E+00  0.000000E+00
 0.000000E+00  1.125000E-02  0.000000E+00
 7.580000E-03  1.125000E-02  0.000000E+00
 1.516000E-02  1.125000E-02  0.000000E+00
 2.274000E-02  1.125000E-02  0.000000E+00
 3.032000E-02  1.125000E-02  0.000000E+00
 3.790000E-02  1.125000E-02  0.000000E+00
 4.548000E-02  1.125000E-02  0.000000E+00
 5.306000E-02  1.125000E-02  0.000000E+00
 6.064000E-02  1.125000E-02  0.000000E+00
 6.822000E-02  1.125000E-02  0.000000E+00
 7.580000E-02  1.125000E-02  0.000000E+00
 8.338000E-02  1.125000E-02  0.000000E+00
 9.096000E-02  1.125000E-02  0.000000E+00
 9.854000E-02  1.125000E-02  0.000000E+00
 1.061200E-01  1.125000E-02  0.000000E+00
 1.137000E-01  1.125000E-02  0.000000E+00
 1.212800E-01  1.125000E-02  0.000000E+00
 1.288600E-01  1.125000E-02  0.000000E+00
 1.364400E-01  1.125000E-02  0.000000E+00
 1.440200E-01  1.125000E-02  0.000000E+00
 1.516000E-01  1.125000E-02  0.000000E+00
 0.000000E+00  0.000000E+00  1.125000E-02
 7.580000E-03  0.000000E+00  1.125000E-02
 1.516000E-02  0.000000E+00  1.125000E-02
 2.274000E-02  0.000000E+00  1.125000E-02
 3.032000E-02  0.000000E+00  1.125000E-02
 3.790000E-02  0.000000E+00  1.125000E-02
 4.548000E-02  0.000000E+00  1.125000E-02
 5.306000E-02  0.000000E+00  1.125000E-02
 6.064000E-02  0.000000E+00  1.125000E-02
 6.822000E-02  0.000000E+00  1.125000E-02
 7.580000E-02  0.000000E+00  1.125000E-02
 8.338000E-02  0.000000E+00  1.125000E-02
 9.096000E-02  0.000000E+00  1.125000E-02
 9.854000E-02  0.000000E+00  1.125000E-02
 1.061200E-01  0.000000E+00  1.125000E-02
 1.137000E-01  0.000000E+00  1.125000E-02
 1.212800E-01  0.000000E+00  1.125000E-02
 1.288600E-01  0.000000E+00  1.125000E-02
 1.364400E-01  0.000000E+00  1.125000E-02
 1.440200E-01  0.000000E+00  1.125000E-02
 1.516000E-01  0.000000E+00  1.125000E-02
 0.000000E+00  1.125000E-02  1.125000E-02
 7.580000E-03  1.125000E-02  1.125000E-02
 1.516000E-02  1.125000E-02  1.125000E-02
 2.274000E-02  1.125000E-02  1.125000E-02
 3.032000E-02  1.125000E-02  1.125000E-02
 3.790000E-02  1.125000E-02  1.125000E-02
 4.548000E-02  1.125000E-02  1.125000E-02
 5.306000E-02  1.125000E-02  1.125000E-02
 6.064000E-02  1.125000E-02  1.125000E-02
 6.822000E-02  1.125000E-02  1.125000E-02
 7.580000E-02  1.125000E-02  1.125000E-02
 8.338000E-02  1.125000E-02  1.125000E-02
 9.096000E-02  1.125000E-02  1.125000E-02
 9.854000E-02  1.125000E-02  1.125000E-02
 1.061200E-01  1.125000E-02  1.125000E-02
 1.137000E-01  1.125000E-02  1.125000E-02
 1.212800E-01  1.125000E-02  1.125000E-02
 1.288600E-01  1.125000E-02  1.125000E-02
 1.364400E-01  1.125000E-02  1.125000E-02
 1.440200E-01  1.125000E-02  1.125000E-02
 1.516000E-01  1.125000E-02  1.125000E-02
CELLS           20          180
8        0        1       22       21       42       43       64       63
8        1        2       23       22       43       44       65       64
8        2        3       24       23       44       45       66       65
8        3        4       25       24       45       46       67       66
8        4        5       26       25       46       47       68       67
8        5        6       27       26       47       48       69       68
8        6        7       28       27       48       49       70       69
8        7        8       29       28       49       50       71       70
8        8        9       30       29       50       51       72       71
8        9       10       31       30       51       52       73       72
8       10       11       32       31       52       53       74       73
8       11       12       33       32       53       54       75       74
8       12       13       34       33       54       55       76       75
8       13       14       35       34       55       56       77       76
8       14       15       36       35       56       57       78       77
8       15       16       37       36       57       58       79       78
8       16       17       38       37       58       59       80       79
8       17       18       39       38       59       60       81       80
8       18       19       40       39       60       61       82       81
8       19       20       41       40       61       62       83       82

CELL_TYPES           20
12
12
12
12
12
12
12
12
12
12
12
12
12
12
12
12
12
12
12
12

CELL_DATA       20
SCALARS Porosity             float 1
LOOKUP_TABLE default
 9.893347E-01  9.890274E-01  9.887772E-01  9.885634E-01  9.883760E-01  9.882085E-01  9.880566E-01  9.879171E-01  9.877877E-01  9.876666E-01
 9.875524E-01  9.874439E-01  9.873403E-01  9.872407E-01  9.871446E-01  9.870514E-01  9.869607E-01  9.868720E-01  9.867850E-01  9.866997E-01


SCALARS Permeability_X       float 1
LOOKUP_TABLE default
 1.000000E-12  1.000000E-12  1.000000E-12  1.000000E-12  1.000000E-12  1.000000E-12  1.000000E-12  1.000000E-12  1.000000E-12  1.000000E-12
 1.000000E-12  1.000000E-12  1.000000E-12  1.000000E-12  1.000000E-12  1.000000E-12  1.000000E-12  1.000000E-12  1.000000E-12  1.000000E-12


SCALARS Liquid_Pressure      float 1
LOOKUP_TABLE default
 7.500296E+06  7.500281E+06  7.500266E+06  7.500250E+06  7.500235E+06  7.500220E+06  7.500205E+06  7.500190E+06  7.500175E+06  7.500159E+06
 7.500144E+06  7.500129E+06  7.500114E+06  7.500099E+06  7.500083E+06  7.500068E+06  7.500053E+06  7.500038E+06  7.500023E+06  7.500008E+06


SCALARS Temperature          float 1
LOOKUP_TABLE default
 1.500000E+02  1.500000E+02  1.500000E+02  1.500000E+02  1.500000E+02  1.499999E+02  1.499999E+02  1.499999E+02  1.499999E+02  1.499999E+02
 1.499999E+02  1.499999E+02  1.499999E+02  1.499999E+02  1.499999E+02  1.499999E+02  1.499999E+02  1.499999E+02  1.499999E+02  1.500000E+02


SCALARS pH                   float 1
LOOKUP_TABLE default
 4.783571E+00  4.845070E+00  4.903665E+00  4.958434E+00  5.009237E+00  5.056278E+00  5.099894E+00  5.140450E+00  5.178297E+00  5.213754E+00
 5.247102E+00  5.278587E+00  5.308422E+00  5.336793E+00  5.363858E+00  5.389759E+00  5.414614E+00  5.438531E+00  5.461603E+00  5.483852E+00


SCALARS Total_H+             float 1
LOOKUP_TABLE default
-3.526287E-04 -3.841663E-04 -4.179272E-04 -4.532887E-04 -4.898543E-04 -5.273660E-04 -5.656547E-04 -6.046105E-04 -6.441639E-04 -6.842736E-04
-7.249182E-04 -7.660906E-04 -8.077948E-04 -8.500423E-04 -8.928512E-04 -9.362439E-04 -9.802469E-04 -1.024890E-03 -1.070203E-03 -1.116099E-03


SCALARS Total_SiO2(aq)       float 1
LOOKUP_TABLE default
 1.405432E-02  1.404905E-02  1.404353E-02  1.403776E-02  1.403172E-02  1.402541E-02  1.401885E-02  1.401203E-02  1.400496E-02  1.399764E-02
 1.399008E-02  1.398229E-02  1.397428E-02  1.396603E-02  1.395756E-02  1.394888E-02  1.393998E-02  1.393087E-02  1.392154E-02  1.391204E-02


SCALARS Total_Al+++          float 1
LOOKUP_TABLE default
 6.015348E-05  6.015348E-05  6.015348E-05  6.015348E-05  6.015348E-05  6.015348E-05  6.015348E-05  6.015348E-05  6.015348E-05  6.015348E-05
 6.015348E-05  6.015348E-05  6.015348E-05  6.015348E-05  6.015348E-05  6.015348E-05  6.015348E-05  6.015348E-05  6.015348E-05  6.015348E-05


SCALARS Total_Ca++           float 1
LOOKUP_TABLE default
 8.378143E-05  9.955021E-05  1.164307E-04  1.341114E-04  1.523942E-04  1.711501E-04  1.902944E-04  2.097723E-04  2.295490E-04  2.496039E-04
 2.699261E-04  2.905124E-04  3.113645E-04  3.324882E-04  3.538926E-04  3.755890E-04  3.975905E-04  4.199118E-04  4.425686E-04  4.655167E-04


SCALARS Total_Cl-            float 1
LOOKUP_TABLE default
 2.513233E-02  2.513233E-02  2.513233E-02  2.513233E-02  2.513233E-02  2.513233E-02  2.513233E-02  2.513233E-02  2.513233E-02  2.513233E-02
 2.513233E-02  2.513233E-02  2.513233E-02  2.513233E-02  2.513233E-02  2.513233E-02  2.513233E-02  2.513233E-02  2.513233E-02  2.513233E-02


SCALARS Total_CO2(aq)        float 1
LOOKUP_TABLE default
 1.358048E-02  1.359625E-02  1.361313E-02  1.363081E-02  1.364909E-02  1.366785E-02  1.368699E-02  1.370647E-02  1.372625E-02  1.374630E-02
 1.376663E-02  1.378721E-02  1.380806E-02  1.382919E-02  1.385059E-02  1.387229E-02  1.389429E-02  1.391661E-02  1.393927E-02  1.396222E-02


SCALARS Total_Na+            float 1
LOOKUP_TABLE default
 3.122900E-02  3.122900E-02  3.122900E-02  3.122900E-02  3.122900E-02  3.122900E-02  3.122900E-02  3.122900E-02  3.122900E-02  3.122900E-02
 3.122900E-02  3.122900E-02  3.122900E-02  3.122900E-02  3.122900E-02  3.122900E-02  3.122900E-02  3.122900E-02  3.122900E-02  3.122900E-02


SCALARS Total_K+             float 1
LOOKUP_TABLE default
 2.655416E-03  2.655416E-03  2.655416E-03  2.655416E-03  2.655416E-03  2.655416E-03  2.655416E-03  2.655416E-03  2.655416E-03  2.655416E-03
 2.655416E-03  2.655416E-03  2.655416E-03  2.655416E-03  2.655416E-03  2.655416E-03  2.655416E-03  2.655416E-03  2.655416E-03  2.655416E-03


SCALARS Total_Mg++           float 1
LOOKUP_TABLE default
 8.216757E-07  8.216757E-07  8.216757E-07  8.216757E-07  8.216757E-07  8.216757E-07  8.216757E-07  8.216757E-07  8.216757E-07  8.216757E-07
 8.216757E-07  8.216757E-07  8.216757E-07  8.216756E-07  8.216756E-07  8.216756E-07  8.216756E-07  8.216756E-07  8.216756E-07  8.216756E-07


SCALARS Total_Fe++           float 1
LOOKUP_TABLE default
 1.251593E-06  1.251593E-06  1.251593E-06  1.251593E-06  1.251593E-06  1.251593E-06  1.251593E-06  1.251593E-06  1.251593E-06  1.251593E-06
 1.251593E-06  1.251593E-06  1.251593E-06  1.251593E-06  1.251593E-06  1.251592E-06  1.251592E-06  1.251592E-06  1.251592E-06  1.251592E-06


SCALARS Total_Cu++           float 1
LOOKUP_TABLE default
 9.952832E-11  9.952832E-11  9.952832E-11  9.952832E-11  9.952832E-11  9.952832E-11  9.952832E-11  9.952832E-11  9.952832E-11  9.952832E-11
 9.952832E-11  9.952832E-11  9.952832E-11  9.952832E-11  9.952832E-11  9.952832E-11  9.952832E-11  9.952832E-11  9.952832E-11  9.952832E-11


SCALARS Total_SO4--          float 1
LOOKUP_TABLE default
 4.376188E-03  4.376188E-03  4.376188E-03  4.376188E-03  4.376188E-03  4.376188E-03  4.376188E-03  4.376188E-03  4.376188E-03  4.376188E-03
 4.376188E-03  4.376188E-03  4.376188E-03  4.376188E-03  4.376188E-03  4.376188E-03  4.376188E-03  4.376188E-03  4.376188E-03  4.376188E-03


SCALARS Total_Tracer         float 1
LOOKUP_TABLE default
 9.952832E-11  9.952832E-11  9.952832E-11  9.952832E-11  9.952832E-11  9.952832E-11  9.952832E-11  9.952832E-11  9.952832E-11  9.952832E-11
 9.952832E-11  9.952832E-11  9.952832E-11  9.952832E-11  9.952832E-11  9.952832E-11  9.952832E-11  9.952832E-11  9.952832E-11  9.952832E-11


SCALARS Active_Gas_CO2(g)    float 1
LOOKUP_TABLE default
 0.000000E+00  0.000000E+00  0.000000E+00  0.000000E+00  0.000000E+00  0.000000E+00  0.000000E+00  0.000000E+00  0.000000E+00  0.000000E+00
 0.000000E+00  0.000000E+00  0.000000E+00  0.000000E+00  0.000000E+00  0.000000E+00  0.000000E+00  0.000000E+00  0.000000E+00  0.000000E+00


SCALARS HCO3-                float 1
LOOKUP_TABLE default
 1.852212E-04  2.132074E-04  2.437601E-04  2.762234E-04  3.101441E-04  3.452093E-04  3.812036E-04  4.179801E-04  4.554401E-04  4.935189E-04
 5.321764E-04  5.713907E-04  6.111530E-04  6.514644E-04  6.923337E-04  7.337755E-04  7.758090E-04  8.184569E-04  8.617445E-04  9.055828E-04


SCALARS H2SiO4--             float 1
LOOKUP_TABLE default
 4.436981E-13  5.887993E-13  7.709689E-13  9.918590E-13  1.252926E-12  1.555510E-12  1.900916E-12  2.290483E-12  2.725631E-12  3.207894E-12
 3.738948E-12  4.320628E-12  4.954948E-12  5.644113E-12  6.390532E-12  7.196835E-12  8.065880E-12  9.000771E-12  1.000486E-11  1.107884E-11


SCALARS H3SiO4-              float 1
LOOKUP_TABLE default
 1.470943E-06  1.694094E-06  1.938065E-06  2.197684E-06  2.469383E-06  2.750695E-06  3.039925E-06  3.335922E-06  3.637912E-06  3.945397E-06
 4.258073E-06  4.575782E-06  4.898475E-06  5.226182E-06  5.558998E-06  5.897069E-06  6.240577E-06  6.589739E-06  6.944796E-06  7.305051E-06


SCALARS Calcite_VF           float 1
LOOKUP_TABLE default
 1.001419E-02  1.024001E-02  1.042192E-02  1.057624E-02  1.071098E-02  1.083110E-02  1.093995E-02  1.103997E-02  1.113298E-02  1.122037E-02
 1.130323E-02  1.138244E-02  1.145870E-02  1.153261E-02  1.160464E-02  1.167521E-02  1.174466E-02  1.181330E-02  1.188139E-02  1.194899E-02


SCALARS SiO2(am)_VF          float 1
LOOKUP_TABLE default
 6.457644E-04  7.263766E-04  7.942607E-04  8.533529E-04  9.058316E-04  9.530834E-04  9.960618E-04  1.035457E-03  1.071787E-03  1.105451E-03
 1.136765E-03  1.165982E-03  1.193310E-03  1.218919E-03  1.242954E-03  1.265534E-03  1.286763E-03  1.306729E-03  1.325509E-03  1.343127E-03


SCALARS Calcite_Rate         float 1
LOOKUP_TABLE default
-1.881117E-05 -2.098184E-05 -2.245397E-05 -2.351078E-05 -2.430321E-05 -2.492353E-05 -2.543113E-05 -2.586549E-05 -2.625351E-05 -2.661388E-05
-2.695992E-05 -2.730124E-05 -2.764494E-05 -2.799633E-05 -2.835949E-05 -2.873756E-05 -2.913302E-05 -2.954783E-05 -2.998357E-05 -3.044043E-05


SCALARS SiO2(am)_Rate        float 1
LOOKUP_TABLE default
 6.748331E-06  7.019933E-06  7.343515E-06  7.688235E-06  8.039358E-06  8.389425E-06  8.734665E-06  9.073288E-06  9.404587E-06  9.728462E-06
 1.004514E-05  1.035504E-05  1.065866E-05  1.095654E-05  1.124921E-05  1.153721E-05  1.182106E-05  1.210124E-05  1.237822E-05  1.265169E-05


SCALARS Calcite_Area         float 1
LOOKUP_TABLE default
 3.525544E-01  4.409256E-01  5.260451E-01  6.095036E-01  6.918907E-01  7.736147E-01  8.550559E-01  9.365960E-01  1.018621E+00  1.101521E+00
 1.185687E+00  1.271515E+00  1.359402E+00  1.449757E+00  1.542995E+00  1.639548E+00  1.739864E+00  1.844416E+00  1.953699E+00  2.067946E+00


SCALARS SiO2(am)_Area        float 1
LOOKUP_TABLE default
 1.158197E+05  1.113569E+05  1.080848E+05  1.055274E+05  1.034474E+05  1.017080E+05  1.002232E+05  9.893567E+04  9.780506E+04  9.680225E+04
 9.590547E+04  9.509805E+04  9.436700E+04  9.370200E+04  9.309471E+04  9.253835E+04  9.202730E+04  9.155689E+04  9.112317E+04  9.072377E+04


SCALARS Material_ID          int 1
LOOKUP_TABLE default
  1
  1
  1
  1
  1
  1
  1
  1
  1
  1
  1
  1
  1
  1
  1
  1
  1
  1
  1
  1


