# vtk DataFile Version 2.0
PFLOTRAN output
ASCII
DATASET UNSTRUCTURED_GRID
POINTS           84 float
 0.000000E+00  0.000000E+00  0.000000E+00
 7.580000E-03  0.000000E+00  0.000000E+00
 1.516000E-02  0.000000E+00  0.000000E+00
 2.274000E-02  0.000000E+00  0.000000E+00
 3.032000E-02  0.000000E+00  0.000000E+00
 3.790000E-02  0.000000E+00  0.000000E+00
 4.548000E-02  0.000000E+00  0.000000E+00
 5.306000E-02  0.000000E+00  0.000000E+00
 6.064000E-02  0.000000E+00  0.000000E+00
 6.822000E-02  0.000000E+00  0.000000E+00
 7.580000E-02  0.000000E+00  0.000000E+00
 8.338000E-02  0.000000E+00  0.000000E+00
 9.096000E-02  0.000000E+00  0.000000E+00
 9.854000E-02  0.000000E+00  0.000000E+00
 1.061200E-01  0.000000E+00  0.000000E+00
 1.137000E-01  0.000000E+00  0.000000E+00
 1.212800E-01  0.000000E+00  0.000000E+00
 1.288600E-01  0.000000E+00  0.000000E+00
 1.364400E-01  0.000000E+00  0.000000E+00
 1.440200E-01  0.000000E+00  0.000000E+00
 1.516000E-01  0.000000E+00  0.000000E+00
 0.000000E+00  1.125000E-02  0.000000E+00
 7.580000E-03  1.125000E-02  0.000000E+00
 1.516000E-02  1.125000E-02  0.000000E+00
 2.274000E-02  1.125000E-02  0.000000E+00
 3.032000E-02  1.125000E-02  0.000000E+00
 3.790000E-02  1.125000E-02  0.000000E+00
 4.548000E-02  1.125000E-02  0.000000E+00
 5.306000E-02  1.125000E-02  0.000000E+00
 6.064000E-02  1.125000E-02  0.000000E+00
 6.822000E-02  1.125000E-02  0.000000E+00
 7.580000E-02  1.125000E-02  0.000000E+00
 8.338000E-02  1.125000E-02  0.000000E+00
 9.096000E-02  1.125000E-02  0.000000E+00
 9.854000E-02  1.125000E-02  0.000000E+00
 1.061200E-01  1.125000E-02  0.000000E+00
 1.137000E-01  1.125000E-02  0.000000E+00
 1.212800E-01  1.125000E-02  0.000000E+00
 1.288600E-01  1.125000E-02  0.000000E+00
 1.364400E-01  1.125000E-02  0.000000E+00
 1.440200E-01  1.125000E-02  0.000000E+00
 1.516000E-01  1.125000E-02  0.000000E+00
 0.000000E+00  0.000000E+00  1.125000E-02
 7.580000E-03  0.000000E+00  1.125000E-02
 1.516000E-02  0.000000E+00  1.125000E-02
 2.274000E-02  0.000000E+00  1.125000E-02
 3.032000E-02  0.000000E+00  1.125000E-02
 3.790000E-02  0.000000E+00  1.125000E-02
 4.548000E-02  0.000000E+00  1.125000E-02
 5.306000E-02  0.000000E+00  1.125000E-02
 6.064000E-02  0.000000E+00  1.125000E-02
 6.822000E-02  0.000000E+00  1.125000E-02
 7.580000E-02  0.000000E+00  1.125000E-02
 8.338000E-02  0.000000E+00  1.125000E-02
 9.096000E-02  0.000000E+00  1.125000E-02
 9.854000E-02  0.000000E+00  1.125000E-02
 1.061200E-01  0.000000E+00  1.125000E-02
 1.137000E-01  0.000000E+00  1.125000E-02
 1.212800E-01  0.000000E+00  1.125000E-02
 1.288600E-01  0.000000E+00  1.125000E-02
 1.364400E-01  0.000000E+00  1.125000E-02
 1.440200E-01  0.000000E+00  1.125000E-02
 1.516000E-01  0.000000E+00  1.125000E-02
 0.000000E+00  1.125000E-02  1.125000E-02
 7.580000E-03  1.125000E-02  1.125000E-02
 1.516000E-02  1.125000E-02  1.125000E-02
 2.274000E-02  1.125000E-02  1.125000E-02
 3.032000E-02  1.125000E-02  1.125000E-02
 3.790000E-02  1.125000E-02  1.125000E-02
 4.548000E-02  1.125000E-02  1.125000E-02
 5.306000E-02  1.125000E-02  1.125000E-02
 6.064000E-02  1.125000E-02  1.125000E-02
 6.822000E-02  1.125000E-02  1.125000E-02
 7.580000E-02  1.125000E-02  1.125000E-02
 8.338000E-02  1.125000E-02  1.125000E-02
 9.096000E-02  1.125000E-02  1.125000E-02
 9.854000E-02  1.125000E-02  1.125000E-02
 1.061200E-01  1.125000E-02  1.125000E-02
 1.137000E-01  1.125000E-02  1.125000E-02
 1.212800E-01  1.125000E-02  1.125000E-02
 1.288600E-01  1.125000E-02  1.125000E-02
 1.364400E-01  1.125000E-02  1.125000E-02
 1.440200E-01  1.125000E-02  1.125000E-02
 1.516000E-01  1.125000E-02  1.125000E-02
CELLS           20          180
8        0        1       22       21       42       43       64       63
8        1        2       23       22       43       44       65       64
8        2        3       24       23       44       45       66       65
8        3        4       25       24       45       46       67       66
8        4        5       26       25       46       47       68       67
8        5        6       27       26       47       48       69       68
8        6        7       28       27       48       49       70       69
8        7        8       29       28       49       50       71       70
8        8        9       30       29       50       51       72       71
8        9       10       31       30       51       52       73       72
8       10       11       32       31       52       53       74       73
8       11       12       33       32       53       54       75       74
8       12       13       34       33       54       55       76       75
8       13       14       35       34       55       56       77       76
8       14       15       36       35       56       57       78       77
8       15       16       37       36       57       58       79       78
8       16       17       38       37       58       59       80       79
8       17       18       39       38       59       60       81       80
8       18       19       40       39       60       61       82       81
8       19       20       41       40       61       62       83       82

CELL_TYPES           20
12
12
12
12
12
12
12
12
12
12
12
12
12
12
12
12
12
12
12
12

CELL_DATA       20
SCALARS Porosity             float 1
LOOKUP_TABLE default
 9.888329E-01  9.884607E-01  9.881747E-01  9.879407E-01  9.877418E-01  9.875677E-01  9.874121E-01  9.872703E-01  9.871394E-01  9.870168E-01
 9.869009E-01  9.867903E-01  9.866839E-01  9.865809E-01  9.864807E-01  9.863825E-01  9.862860E-01  9.861909E-01  9.860967E-01  9.860035E-01


SCALARS Permeability_X       float 1
LOOKUP_TABLE default
 1.000000E-12  1.000000E-12  1.000000E-12  1.000000E-12  1.000000E-12  1.000000E-12  1.000000E-12  1.000000E-12  1.000000E-12  1.000000E-12
 1.000000E-12  1.000000E-12  1.000000E-12  1.000000E-12  1.000000E-12  1.000000E-12  1.000000E-12  1.000000E-12  1.000000E-12  1.000000E-12


SCALARS Liquid_Pressure      float 1
LOOKUP_TABLE default
 7.500296E+06  7.500281E+06  7.500266E+06  7.500250E+06  7.500235E+06  7.500220E+06  7.500205E+06  7.500190E+06  7.500175E+06  7.500159E+06
 7.500144E+06  7.500129E+06  7.500114E+06  7.500099E+06  7.500083E+06  7.500068E+06  7.500053E+06  7.500038E+06  7.500023E+06  7.500008E+06


SCALARS Temperature          float 1
LOOKUP_TABLE default
 1.500000E+02  1.500000E+02  1.499999E+02  1.499999E+02  1.499999E+02  1.499999E+02  1.499999E+02  1.499999E+02  1.499998E+02  1.499998E+02
 1.499998E+02  1.499998E+02  1.499998E+02  1.499998E+02  1.499998E+02  1.499998E+02  1.499998E+02  1.499998E+02  1.499999E+02  1.500000E+02


SCALARS pH                   float 1
LOOKUP_TABLE default
 4.824908E+00  4.919601E+00  5.002954E+00  5.075927E+00  5.140215E+00  5.197405E+00  5.248808E+00  5.295460E+00  5.338175E+00  5.377598E+00
 5.414237E+00  5.448503E+00  5.480727E+00  5.511179E+00  5.540081E+00  5.567617E+00  5.593941E+00  5.619179E+00  5.643437E+00  5.666743E+00


SCALARS Total_H+             float 1
LOOKUP_TABLE default
-3.734179E-04 -4.278138E-04 -4.851213E-04 -5.441780E-04 -6.043783E-04 -6.654019E-04 -7.270847E-04 -7.893514E-04 -8.521799E-04 -9.155794E-04
-9.795789E-04 -1.044218E-03 -1.109543E-03 -1.175601E-03 -1.242440E-03 -1.310104E-03 -1.378632E-03 -1.448056E-03 -1.518397E-03 -1.589478E-03


SCALARS Total_SiO2(aq)       float 1
LOOKUP_TABLE default
 1.405355E-02  1.404725E-02  1.404046E-02  1.403319E-02  1.402546E-02  1.401729E-02  1.400870E-02  1.399970E-02  1.399032E-02  1.398056E-02
 1.397044E-02  1.395998E-02  1.394917E-02  1.393802E-02  1.392655E-02  1.391477E-02  1.390266E-02  1.389025E-02  1.387753E-02  1.386455E-02


SCALARS Total_Al+++          float 1
LOOKUP_TABLE default
 6.015348E-05  6.015348E-05  6.015348E-05  6.015348E-05  6.015348E-05  6.015348E-05  6.015348E-05  6.015348E-05  6.015348E-05  6.015348E-05
 6.015348E-05  6.015348E-05  6.015348E-05  6.015349E-05  6.015349E-05  6.015349E-05  6.015349E-05  6.015349E-05  6.015349E-05  6.015349E-05


SCALARS Total_Ca++           float 1
LOOKUP_TABLE default
 9.417603E-05  1.213740E-04  1.500277E-04  1.795560E-04  2.096562E-04  2.401680E-04  2.710094E-04  3.021428E-04  3.335570E-04  3.652568E-04
 3.972565E-04  4.295761E-04  4.622384E-04  4.952675E-04  5.286870E-04  5.625191E-04  5.967832E-04  6.314952E-04  6.666658E-04  7.022061E-04


SCALARS Total_Cl-            float 1
LOOKUP_TABLE default
 2.513233E-02  2.513233E-02  2.513233E-02  2.513233E-02  2.513233E-02  2.513233E-02  2.513233E-02  2.513233E-02  2.513233E-02  2.513233E-02
 2.513233E-02  2.513233E-02  2.513233E-02  2.513233E-02  2.513233E-02  2.513233E-02  2.513233E-02  2.513233E-02  2.513233E-02  2.513233E-02


SCALARS Total_CO2(aq)        float 1
LOOKUP_TABLE default
 1.359088E-02  1.361807E-02  1.364673E-02  1.367626E-02  1.370636E-02  1.373687E-02  1.376771E-02  1.379884E-02  1.383026E-02  1.386196E-02
 1.389396E-02  1.392628E-02  1.395894E-02  1.399197E-02  1.402539E-02  1.405922E-02  1.409348E-02  1.412819E-02  1.416337E-02  1.419891E-02


SCALARS Total_Na+            float 1
LOOKUP_TABLE default
 3.122900E-02  3.122900E-02  3.122900E-02  3.122900E-02  3.122900E-02  3.122900E-02  3.122900E-02  3.122900E-02  3.122900E-02  3.122900E-02
 3.122900E-02  3.122900E-02  3.122900E-02  3.122900E-02  3.122900E-02  3.122900E-02  3.122900E-02  3.122900E-02  3.122900E-02  3.122900E-02


SCALARS Total_K+             float 1
LOOKUP_TABLE default
 2.655416E-03  2.655416E-03  2.655416E-03  2.655416E-03  2.655416E-03  2.655416E-03  2.655416E-03  2.655416E-03  2.655416E-03  2.655416E-03
 2.655416E-03  2.655416E-03  2.655416E-03  2.655416E-03  2.655416E-03  2.655416E-03  2.655416E-03  2.655416E-03  2.655415E-03  2.655415E-03


SCALARS Total_Mg++           float 1
LOOKUP_TABLE default
 8.216757E-07  8.216757E-07  8.216757E-07  8.216757E-07  8.216757E-07  8.216757E-07  8.216757E-07  8.216757E-07  8.216757E-07  8.216757E-07
 8.216757E-07  8.216757E-07  8.216757E-07  8.216756E-07  8.216756E-07  8.216756E-07  8.216756E-07  8.216756E-07  8.216756E-07  8.216756E-07


SCALARS Total_Fe++           float 1
LOOKUP_TABLE default
 1.251593E-06  1.251593E-06  1.251593E-06  1.251593E-06  1.251593E-06  1.251593E-06  1.251593E-06  1.251593E-06  1.251593E-06  1.251593E-06
 1.251593E-06  1.251593E-06  1.251593E-06  1.251593E-06  1.251592E-06  1.251592E-06  1.251592E-06  1.251592E-06  1.251592E-06  1.251592E-06


SCALARS Total_Cu++           float 1
LOOKUP_TABLE default
 9.952832E-11  9.952832E-11  9.952832E-11  9.952832E-11  9.952832E-11  9.952832E-11  9.952832E-11  9.952832E-11  9.952832E-11  9.952832E-11
 9.952832E-11  9.952832E-11  9.952832E-11  9.952832E-11  9.952832E-11  9.952832E-11  9.952832E-11  9.952832E-11  9.952832E-11  9.952832E-11


SCALARS Total_SO4--          float 1
LOOKUP_TABLE default
 4.376188E-03  4.376188E-03  4.376188E-03  4.376188E-03  4.376188E-03  4.376188E-03  4.376188E-03  4.376188E-03  4.376188E-03  4.376188E-03
 4.376188E-03  4.376188E-03  4.376188E-03  4.376188E-03  4.376188E-03  4.376188E-03  4.376188E-03  4.376188E-03  4.376188E-03  4.376188E-03


SCALARS Total_Tracer         float 1
LOOKUP_TABLE default
 9.952832E-11  9.952832E-11  9.952832E-11  9.952832E-11  9.952832E-11  9.952832E-11  9.952832E-11  9.952832E-11  9.952832E-11  9.952832E-11
 9.952832E-11  9.952832E-11  9.952832E-11  9.952832E-11  9.952832E-11  9.952832E-11  9.952832E-11  9.952832E-11  9.952832E-11  9.952832E-11


SCALARS Active_Gas_CO2(g)    float 1
LOOKUP_TABLE default
 0.000000E+00  0.000000E+00  0.000000E+00  0.000000E+00  0.000000E+00  0.000000E+00  0.000000E+00  0.000000E+00  0.000000E+00  0.000000E+00
 0.000000E+00  0.000000E+00  0.000000E+00  0.000000E+00  0.000000E+00  0.000000E+00  0.000000E+00  0.000000E+00  0.000000E+00  0.000000E+00


SCALARS HCO3-                float 1
LOOKUP_TABLE default
 2.035988E-04  2.527950E-04  3.057359E-04  3.609901E-04  4.177575E-04  4.755887E-04  5.342332E-04  5.935570E-04  6.534958E-04  7.140279E-04
 7.751579E-04  8.369063E-04  8.993030E-04  9.623820E-04  1.026179E-03  1.090726E-03  1.156054E-03  1.222185E-03  1.289132E-03  1.356719E-03


SCALARS H2SiO4--             float 1
LOOKUP_TABLE default
 5.367455E-13  8.299254E-13  1.217935E-12  1.703884E-12  2.290202E-12  2.979222E-12  3.773504E-12  4.675999E-12  5.690125E-12  6.819816E-12
 8.069527E-12  9.444242E-12  1.094945E-11  1.259114E-11  1.437574E-11  1.631007E-11  1.840127E-11  2.065669E-11  2.308376E-11  2.568275E-11


SCALARS H3SiO4-              float 1
LOOKUP_TABLE default
 1.617757E-06  2.011041E-06  2.435429E-06  2.879626E-06  3.337313E-06  3.804939E-06  4.280530E-06  4.763038E-06  5.251977E-06  5.747205E-06
 6.248799E-06  6.756969E-06  7.272009E-06  7.794254E-06  8.324054E-06  8.861751E-06  9.407659E-06  9.962040E-06  1.052509E-05  1.109539E-05


SCALARS Calcite_VF           float 1
LOOKUP_TABLE default
 1.065941E-02  1.095828E-02  1.118532E-02  1.136961E-02  1.152554E-02  1.166162E-02  1.178334E-02  1.189445E-02  1.199760E-02  1.209473E-02
 1.218732E-02  1.227648E-02  1.236309E-02  1.244785E-02  1.253133E-02  1.261398E-02  1.269617E-02  1.277821E-02  1.286035E-02  1.294258E-02


SCALARS SiO2(am)_VF          float 1
LOOKUP_TABLE default
 4.971276E-04  5.692144E-04  6.276260E-04  6.770503E-04  7.199723E-04  7.579036E-04  7.918413E-04  8.224812E-04  8.503293E-04  8.757654E-04
 8.990825E-04  9.205112E-04  9.402364E-04  9.584088E-04  9.751525E-04  9.905714E-04  1.004753E-03  1.017772E-03  1.029691E-03  1.040544E-03


SCALARS Calcite_Rate         float 1
LOOKUP_TABLE default
-3.267483E-05 -3.617554E-05 -3.809301E-05 -3.923568E-05 -3.997491E-05 -4.050096E-05 -4.091771E-05 -4.128458E-05 -4.163670E-05 -4.199521E-05
-4.237283E-05 -4.277701E-05 -4.321166E-05 -4.367824E-05 -4.417631E-05 -4.470384E-05 -4.525741E-05 -4.583214E-05 -4.642167E-05 -4.701697E-05


SCALARS SiO2(am)_Rate        float 1
LOOKUP_TABLE default
 7.773526E-06  8.391583E-06  9.037899E-06  9.672244E-06  1.028222E-05  1.086519E-05  1.142213E-05  1.195526E-05  1.246715E-05  1.296026E-05
 1.343689E-05  1.389909E-05  1.434865E-05  1.478713E-05  1.521589E-05  1.563609E-05  1.604871E-05  1.645457E-05  1.685431E-05  1.724739E-05


SCALARS Calcite_Area         float 1
LOOKUP_TABLE default
 6.613876E-01  8.728832E-01  1.072005E+00  1.262542E+00  1.446880E+00  1.627108E+00  1.805143E+00  1.982747E+00  2.161554E+00  2.343091E+00
 2.528808E+00  2.720101E+00  2.918340E+00  3.124884E+00  3.341101E+00  3.568382E+00  3.808150E+00  4.061870E+00  4.331048E+00  4.616513E+00


SCALARS SiO2(am)_Area        float 1
LOOKUP_TABLE default
 1.264408E+05  1.208492E+05  1.169732E+05  1.140533E+05  1.117402E+05  1.098447E+05  1.082535E+05  1.068934E+05  1.057149E+05  1.046829E+05
 1.037716E+05  1.029617E+05  1.022383E+05  1.015898E+05  1.010068E+05  1.004819E+05  1.000089E+05  9.958269E+04  9.919902E+04  9.885511E+04


SCALARS Material_ID          int 1
LOOKUP_TABLE default
  1
  1
  1
  1
  1
  1
  1
  1
  1
  1
  1
  1
  1
  1
  1
  1
  1
  1
  1
  1


