# vtk DataFile Version 2.0
PFLOTRAN output
ASCII
DATASET UNSTRUCTURED_GRID
POINTS           84 float
 0.000000E+00  0.000000E+00  0.000000E+00
 7.580000E-03  0.000000E+00  0.000000E+00
 1.516000E-02  0.000000E+00  0.000000E+00
 2.274000E-02  0.000000E+00  0.000000E+00
 3.032000E-02  0.000000E+00  0.000000E+00
 3.790000E-02  0.000000E+00  0.000000E+00
 4.548000E-02  0.000000E+00  0.000000E+00
 5.306000E-02  0.000000E+00  0.000000E+00
 6.064000E-02  0.000000E+00  0.000000E+00
 6.822000E-02  0.000000E+00  0.000000E+00
 7.580000E-02  0.000000E+00  0.000000E+00
 8.338000E-02  0.000000E+00  0.000000E+00
 9.096000E-02  0.000000E+00  0.000000E+00
 9.854000E-02  0.000000E+00  0.000000E+00
 1.061200E-01  0.000000E+00  0.000000E+00
 1.137000E-01  0.000000E+00  0.000000E+00
 1.212800E-01  0.000000E+00  0.000000E+00
 1.288600E-01  0.000000E+00  0.000000E+00
 1.364400E-01  0.000000E+00  0.000000E+00
 1.440200E-01  0.000000E+00  0.000000E+00
 1.516000E-01  0.000000E+00  0.000000E+00
 0.000000E+00  1.125000E-02  0.000000E+00
 7.580000E-03  1.125000E-02  0.000000E+00
 1.516000E-02  1.125000E-02  0.000000E+00
 2.274000E-02  1.125000E-02  0.000000E+00
 3.032000E-02  1.125000E-02  0.000000E+00
 3.790000E-02  1.125000E-02  0.000000E+00
 4.548000E-02  1.125000E-02  0.000000E+00
 5.306000E-02  1.125000E-02  0.000000E+00
 6.064000E-02  1.125000E-02  0.000000E+00
 6.822000E-02  1.125000E-02  0.000000E+00
 7.580000E-02  1.125000E-02  0.000000E+00
 8.338000E-02  1.125000E-02  0.000000E+00
 9.096000E-02  1.125000E-02  0.000000E+00
 9.854000E-02  1.125000E-02  0.000000E+00
 1.061200E-01  1.125000E-02  0.000000E+00
 1.137000E-01  1.125000E-02  0.000000E+00
 1.212800E-01  1.125000E-02  0.000000E+00
 1.288600E-01  1.125000E-02  0.000000E+00
 1.364400E-01  1.125000E-02  0.000000E+00
 1.440200E-01  1.125000E-02  0.000000E+00
 1.516000E-01  1.125000E-02  0.000000E+00
 0.000000E+00  0.000000E+00  1.125000E-02
 7.580000E-03  0.000000E+00  1.125000E-02
 1.516000E-02  0.000000E+00  1.125000E-02
 2.274000E-02  0.000000E+00  1.125000E-02
 3.032000E-02  0.000000E+00  1.125000E-02
 3.790000E-02  0.000000E+00  1.125000E-02
 4.548000E-02  0.000000E+00  1.125000E-02
 5.306000E-02  0.000000E+00  1.125000E-02
 6.064000E-02  0.000000E+00  1.125000E-02
 6.822000E-02  0.000000E+00  1.125000E-02
 7.580000E-02  0.000000E+00  1.125000E-02
 8.338000E-02  0.000000E+00  1.125000E-02
 9.096000E-02  0.000000E+00  1.125000E-02
 9.854000E-02  0.000000E+00  1.125000E-02
 1.061200E-01  0.000000E+00  1.125000E-02
 1.137000E-01  0.000000E+00  1.125000E-02
 1.212800E-01  0.000000E+00  1.125000E-02
 1.288600E-01  0.000000E+00  1.125000E-02
 1.364400E-01  0.000000E+00  1.125000E-02
 1.440200E-01  0.000000E+00  1.125000E-02
 1.516000E-01  0.000000E+00  1.125000E-02
 0.000000E+00  1.125000E-02  1.125000E-02
 7.580000E-03  1.125000E-02  1.125000E-02
 1.516000E-02  1.125000E-02  1.125000E-02
 2.274000E-02  1.125000E-02  1.125000E-02
 3.032000E-02  1.125000E-02  1.125000E-02
 3.790000E-02  1.125000E-02  1.125000E-02
 4.548000E-02  1.125000E-02  1.125000E-02
 5.306000E-02  1.125000E-02  1.125000E-02
 6.064000E-02  1.125000E-02  1.125000E-02
 6.822000E-02  1.125000E-02  1.125000E-02
 7.580000E-02  1.125000E-02  1.125000E-02
 8.338000E-02  1.125000E-02  1.125000E-02
 9.096000E-02  1.125000E-02  1.125000E-02
 9.854000E-02  1.125000E-02  1.125000E-02
 1.061200E-01  1.125000E-02  1.125000E-02
 1.137000E-01  1.125000E-02  1.125000E-02
 1.212800E-01  1.125000E-02  1.125000E-02
 1.288600E-01  1.125000E-02  1.125000E-02
 1.364400E-01  1.125000E-02  1.125000E-02
 1.440200E-01  1.125000E-02  1.125000E-02
 1.516000E-01  1.125000E-02  1.125000E-02
CELLS           20          180
8        0        1       22       21       42       43       64       63
8        1        2       23       22       43       44       65       64
8        2        3       24       23       44       45       66       65
8        3        4       25       24       45       46       67       66
8        4        5       26       25       46       47       68       67
8        5        6       27       26       47       48       69       68
8        6        7       28       27       48       49       70       69
8        7        8       29       28       49       50       71       70
8        8        9       30       29       50       51       72       71
8        9       10       31       30       51       52       73       72
8       10       11       32       31       52       53       74       73
8       11       12       33       32       53       54       75       74
8       12       13       34       33       54       55       76       75
8       13       14       35       34       55       56       77       76
8       14       15       36       35       56       57       78       77
8       15       16       37       36       57       58       79       78
8       16       17       38       37       58       59       80       79
8       17       18       39       38       59       60       81       80
8       18       19       40       39       60       61       82       81
8       19       20       41       40       61       62       83       82

CELL_TYPES           20
12
12
12
12
12
12
12
12
12
12
12
12
12
12
12
12
12
12
12
12

CELL_DATA       20
SCALARS Porosity             float 1
LOOKUP_TABLE default
 9.891758E-01  9.888463E-01  9.885827E-01  9.883607E-01  9.881681E-01  9.879972E-01  9.878431E-01  9.877021E-01  9.875716E-01  9.874495E-01
 9.873344E-01  9.872249E-01  9.871202E-01  9.870193E-01  9.869217E-01  9.868268E-01  9.867340E-01  9.866431E-01  9.865536E-01  9.864654E-01


SCALARS Permeability_X       float 1
LOOKUP_TABLE default
 1.000000E-12  1.000000E-12  1.000000E-12  1.000000E-12  1.000000E-12  1.000000E-12  1.000000E-12  1.000000E-12  1.000000E-12  1.000000E-12
 1.000000E-12  1.000000E-12  1.000000E-12  1.000000E-12  1.000000E-12  1.000000E-12  1.000000E-12  1.000000E-12  1.000000E-12  1.000000E-12


SCALARS Liquid_Pressure      float 1
LOOKUP_TABLE default
 7.500296E+06  7.500281E+06  7.500266E+06  7.500250E+06  7.500235E+06  7.500220E+06  7.500205E+06  7.500190E+06  7.500175E+06  7.500159E+06
 7.500144E+06  7.500129E+06  7.500114E+06  7.500099E+06  7.500083E+06  7.500068E+06  7.500053E+06  7.500038E+06  7.500023E+06  7.500008E+06


SCALARS Temperature          float 1
LOOKUP_TABLE default
 1.500000E+02  1.500000E+02  1.500000E+02  1.500000E+02  1.499999E+02  1.499999E+02  1.499999E+02  1.499999E+02  1.499999E+02  1.499999E+02
 1.499999E+02  1.499999E+02  1.499999E+02  1.499999E+02  1.499999E+02  1.499999E+02  1.499999E+02  1.499999E+02  1.499999E+02  1.500000E+02


SCALARS pH                   float 1
LOOKUP_TABLE default
 4.795630E+00  4.867548E+00  4.934452E+00  4.995673E+00  5.051466E+00  5.102395E+00  5.149077E+00  5.192088E+00  5.231933E+00  5.269043E+00
 5.303782E+00  5.336456E+00  5.367326E+00  5.396609E+00  5.424491E+00  5.451131E+00  5.476666E+00  5.501213E+00  5.524872E+00  5.547673E+00


SCALARS Total_H+             float 1
LOOKUP_TABLE default
-3.585275E-04 -3.966575E-04 -4.373181E-04 -4.797106E-04 -5.233561E-04 -5.679611E-04 -6.133456E-04 -6.594014E-04 -7.060674E-04 -7.533138E-04
-8.011325E-04 -8.495302E-04 -8.985245E-04 -9.481404E-04 -9.984087E-04 -1.049364E-03 -1.101043E-03 -1.153485E-03 -1.206731E-03 -1.260676E-03


SCALARS Total_SiO2(aq)       float 1
LOOKUP_TABLE default
 1.405408E-02  1.404850E-02  1.404260E-02  1.403637E-02  1.402983E-02  1.402296E-02  1.401578E-02  1.400830E-02  1.400052E-02  1.399246E-02
 1.398412E-02  1.397551E-02  1.396663E-02  1.395750E-02  1.394810E-02  1.393846E-02  1.392857E-02  1.391844E-02  1.390806E-02  1.389748E-02


SCALARS Total_Al+++          float 1
LOOKUP_TABLE default
 6.015348E-05  6.015348E-05  6.015348E-05  6.015348E-05  6.015348E-05  6.015348E-05  6.015348E-05  6.015348E-05  6.015348E-05  6.015348E-05
 6.015348E-05  6.015348E-05  6.015348E-05  6.015348E-05  6.015348E-05  6.015348E-05  6.015348E-05  6.015348E-05  6.015348E-05  6.015348E-05


SCALARS Total_Ca++           float 1
LOOKUP_TABLE default
 8.673083E-05  1.057958E-04  1.261261E-04  1.473224E-04  1.691451E-04  1.914476E-04  2.141399E-04  2.371678E-04  2.605008E-04  2.841240E-04
 3.080333E-04  3.322322E-04  3.567293E-04  3.815373E-04  4.066714E-04  4.321489E-04  4.579885E-04  4.842098E-04  5.108325E-04  5.378051E-04


SCALARS Total_Cl-            float 1
LOOKUP_TABLE default
 2.513233E-02  2.513233E-02  2.513233E-02  2.513233E-02  2.513233E-02  2.513233E-02  2.513233E-02  2.513233E-02  2.513233E-02  2.513233E-02
 2.513233E-02  2.513233E-02  2.513233E-02  2.513233E-02  2.513233E-02  2.513233E-02  2.513233E-02  2.513233E-02  2.513233E-02  2.513233E-02


SCALARS Total_CO2(aq)        float 1
LOOKUP_TABLE default
 1.358343E-02  1.360250E-02  1.362283E-02  1.364402E-02  1.366584E-02  1.368815E-02  1.371084E-02  1.373387E-02  1.375720E-02  1.378082E-02
 1.380473E-02  1.382893E-02  1.385343E-02  1.387824E-02  1.390337E-02  1.392885E-02  1.395469E-02  1.398091E-02  1.400753E-02  1.403450E-02


SCALARS Total_Na+            float 1
LOOKUP_TABLE default
 3.122900E-02  3.122900E-02  3.122900E-02  3.122900E-02  3.122900E-02  3.122900E-02  3.122900E-02  3.122900E-02  3.122900E-02  3.122900E-02
 3.122900E-02  3.122900E-02  3.122900E-02  3.122900E-02  3.122900E-02  3.122900E-02  3.122900E-02  3.122900E-02  3.122900E-02  3.122900E-02


SCALARS Total_K+             float 1
LOOKUP_TABLE default
 2.655416E-03  2.655416E-03  2.655416E-03  2.655416E-03  2.655416E-03  2.655416E-03  2.655416E-03  2.655416E-03  2.655416E-03  2.655416E-03
 2.655416E-03  2.655416E-03  2.655416E-03  2.655416E-03  2.655416E-03  2.655416E-03  2.655416E-03  2.655416E-03  2.655416E-03  2.655415E-03


SCALARS Total_Mg++           float 1
LOOKUP_TABLE default
 8.216757E-07  8.216757E-07  8.216757E-07  8.216757E-07  8.216757E-07  8.216757E-07  8.216757E-07  8.216757E-07  8.216757E-07  8.216757E-07
 8.216757E-07  8.216757E-07  8.216757E-07  8.216756E-07  8.216756E-07  8.216756E-07  8.216756E-07  8.216756E-07  8.216756E-07  8.216756E-07


SCALARS Total_Fe++           float 1
LOOKUP_TABLE default
 1.251593E-06  1.251593E-06  1.251593E-06  1.251593E-06  1.251593E-06  1.251593E-06  1.251593E-06  1.251593E-06  1.251593E-06  1.251593E-06
 1.251593E-06  1.251593E-06  1.251593E-06  1.251593E-06  1.251593E-06  1.251592E-06  1.251592E-06  1.251592E-06  1.251592E-06  1.251592E-06


SCALARS Total_Cu++           float 1
LOOKUP_TABLE default
 9.952832E-11  9.952832E-11  9.952832E-11  9.952832E-11  9.952832E-11  9.952832E-11  9.952832E-11  9.952832E-11  9.952832E-11  9.952832E-11
 9.952832E-11  9.952832E-11  9.952832E-11  9.952832E-11  9.952832E-11  9.952832E-11  9.952832E-11  9.952832E-11  9.952832E-11  9.952832E-11


SCALARS Total_SO4--          float 1
LOOKUP_TABLE default
 4.376188E-03  4.376188E-03  4.376188E-03  4.376188E-03  4.376188E-03  4.376188E-03  4.376188E-03  4.376188E-03  4.376188E-03  4.376188E-03
 4.376188E-03  4.376188E-03  4.376188E-03  4.376188E-03  4.376188E-03  4.376188E-03  4.376188E-03  4.376188E-03  4.376188E-03  4.376188E-03


SCALARS Total_Tracer         float 1
LOOKUP_TABLE default
 9.952832E-11  9.952832E-11  9.952832E-11  9.952832E-11  9.952832E-11  9.952832E-11  9.952832E-11  9.952832E-11  9.952832E-11  9.952832E-11
 9.952832E-11  9.952832E-11  9.952832E-11  9.952832E-11  9.952832E-11  9.952832E-11  9.952832E-11  9.952832E-11  9.952832E-11  9.952832E-11


SCALARS Active_Gas_CO2(g)    float 1
LOOKUP_TABLE default
 0.000000E+00  0.000000E+00  0.000000E+00  0.000000E+00  0.000000E+00  0.000000E+00  0.000000E+00  0.000000E+00  0.000000E+00  0.000000E+00
 0.000000E+00  0.000000E+00  0.000000E+00  0.000000E+00  0.000000E+00  0.000000E+00  0.000000E+00  0.000000E+00  0.000000E+00  0.000000E+00


SCALARS HCO3-                float 1
LOOKUP_TABLE default
 1.904053E-04  2.244509E-04  2.615129E-04  3.007043E-04  3.414497E-04  3.833762E-04  4.262426E-04  4.698950E-04  5.142376E-04  5.592143E-04
 6.047958E-04  6.509723E-04  6.977474E-04  7.451344E-04  7.931540E-04  8.418314E-04  8.911959E-04  9.412788E-04  9.921126E-04  1.043594E-03


SCALARS H2SiO4--             float 1
LOOKUP_TABLE default
 4.690368E-13  6.530172E-13  8.884062E-13  1.177407E-12  1.521876E-12  1.923517E-12  2.384029E-12  2.905212E-12  3.489027E-12  4.137645E-12
 4.853478E-12  5.639200E-12  6.497768E-12  7.432434E-12  8.446765E-12  9.544647E-12  1.073030E-11  1.200829E-11  1.338352E-11  1.485720E-11


SCALARS H3SiO4-              float 1
LOOKUP_TABLE default
 1.512338E-06  1.784024E-06  2.080320E-06  2.394236E-06  2.721236E-06  3.058381E-06  3.403775E-06  3.756211E-06  4.114944E-06  4.479547E-06
 4.849810E-06  5.225681E-06  5.607217E-06  5.994560E-06  6.387910E-06  6.787514E-06  7.193653E-06  7.606629E-06  8.026760E-06  8.453239E-06


SCALARS Calcite_VF           float 1
LOOKUP_TABLE default
 1.022774E-02  1.047822E-02  1.067640E-02  1.084212E-02  1.098526E-02  1.111186E-02  1.122599E-02  1.133053E-02  1.142760E-02  1.151879E-02
 1.160535E-02  1.168825E-02  1.176828E-02  1.184606E-02  1.192214E-02  1.199694E-02  1.207085E-02  1.214417E-02  1.221720E-02  1.228998E-02


SCALARS SiO2(am)_VF          float 1
LOOKUP_TABLE default
 5.896168E-04  6.676655E-04  7.325676E-04  7.885291E-04  8.378518E-04  8.819811E-04  9.218983E-04  9.583047E-04  9.917208E-04  1.022545E-03
 1.051088E-03  1.077598E-03  1.102277E-03  1.125291E-03  1.146777E-03  1.166851E-03  1.185611E-03  1.203142E-03  1.219514E-03  1.234755E-03


SCALARS Calcite_Rate         float 1
LOOKUP_TABLE default
-2.274529E-05 -2.536476E-05 -2.703823E-05 -2.817912E-05 -2.900068E-05 -2.962663E-05 -3.013258E-05 -3.056647E-05 -3.095957E-05 -3.133280E-05
-3.170049E-05 -3.207262E-05 -3.245627E-05 -3.285649E-05 -3.327694E-05 -3.372022E-05 -3.418816E-05 -3.468195E-05 -3.520220E-05 -3.574787E-05


SCALARS SiO2(am)_Rate        float 1
LOOKUP_TABLE default
 7.066997E-06  7.434689E-06  7.852266E-06  8.284132E-06  8.714856E-06  9.137589E-06  9.549517E-06  9.949801E-06  1.033858E-05  1.071648E-05
 1.108433E-05  1.144302E-05  1.179347E-05  1.213655E-05  1.247309E-05  1.280386E-05  1.312955E-05  1.345081E-05  1.376824E-05  1.408152E-05


SCALARS Calcite_Area         float 1
LOOKUP_TABLE default
 4.359758E-01  5.557517E-01  6.705757E-01  7.824502E-01  8.922531E-01  1.000688E+00  1.108432E+00  1.216153E+00  1.324509E+00  1.434147E+00
 1.545707E+00  1.659824E+00  1.777131E+00  1.898273E+00  2.023905E+00  2.154706E+00  2.291381E+00  2.434670E+00  2.585356E+00  2.743861E+00


SCALARS SiO2(am)_Area        float 1
LOOKUP_TABLE default
 1.194044E+05  1.145474E+05  1.110546E+05  1.083603E+05  1.061897E+05  1.043878E+05  1.028589E+05  1.015397E+05  1.003867E+05  9.936824E+04
 9.846117E+04  9.764778E+04  9.691433E+04  9.624997E+04  9.564598E+04  9.509528E+04  9.459204E+04  9.413142E+04  9.370935E+04  9.332330E+04


SCALARS Material_ID          int 1
LOOKUP_TABLE default
  1
  1
  1
  1
  1
  1
  1
  1
  1
  1
  1
  1
  1
  1
  1
  1
  1
  1
  1
  1


