# vtk DataFile Version 2.0
PFLOTRAN output
ASCII
DATASET UNSTRUCTURED_GRID
POINTS           84 float
 0.000000E+00  0.000000E+00  0.000000E+00
 7.580000E-03  0.000000E+00  0.000000E+00
 1.516000E-02  0.000000E+00  0.000000E+00
 2.274000E-02  0.000000E+00  0.000000E+00
 3.032000E-02  0.000000E+00  0.000000E+00
 3.790000E-02  0.000000E+00  0.000000E+00
 4.548000E-02  0.000000E+00  0.000000E+00
 5.306000E-02  0.000000E+00  0.000000E+00
 6.064000E-02  0.000000E+00  0.000000E+00
 6.822000E-02  0.000000E+00  0.000000E+00
 7.580000E-02  0.000000E+00  0.000000E+00
 8.338000E-02  0.000000E+00  0.000000E+00
 9.096000E-02  0.000000E+00  0.000000E+00
 9.854000E-02  0.000000E+00  0.000000E+00
 1.061200E-01  0.000000E+00  0.000000E+00
 1.137000E-01  0.000000E+00  0.000000E+00
 1.212800E-01  0.000000E+00  0.000000E+00
 1.288600E-01  0.000000E+00  0.000000E+00
 1.364400E-01  0.000000E+00  0.000000E+00
 1.440200E-01  0.000000E+00  0.000000E+00
 1.516000E-01  0.000000E+00  0.000000E+00
 0.000000E+00  1.125000E-02  0.000000E+00
 7.580000E-03  1.125000E-02  0.000000E+00
 1.516000E-02  1.125000E-02  0.000000E+00
 2.274000E-02  1.125000E-02  0.000000E+00
 3.032000E-02  1.125000E-02  0.000000E+00
 3.790000E-02  1.125000E-02  0.000000E+00
 4.548000E-02  1.125000E-02  0.000000E+00
 5.306000E-02  1.125000E-02  0.000000E+00
 6.064000E-02  1.125000E-02  0.000000E+00
 6.822000E-02  1.125000E-02  0.000000E+00
 7.580000E-02  1.125000E-02  0.000000E+00
 8.338000E-02  1.125000E-02  0.000000E+00
 9.096000E-02  1.125000E-02  0.000000E+00
 9.854000E-02  1.125000E-02  0.000000E+00
 1.061200E-01  1.125000E-02  0.000000E+00
 1.137000E-01  1.125000E-02  0.000000E+00
 1.212800E-01  1.125000E-02  0.000000E+00
 1.288600E-01  1.125000E-02  0.000000E+00
 1.364400E-01  1.125000E-02  0.000000E+00
 1.440200E-01  1.125000E-02  0.000000E+00
 1.516000E-01  1.125000E-02  0.000000E+00
 0.000000E+00  0.000000E+00  1.125000E-02
 7.580000E-03  0.000000E+00  1.125000E-02
 1.516000E-02  0.000000E+00  1.125000E-02
 2.274000E-02  0.000000E+00  1.125000E-02
 3.032000E-02  0.000000E+00  1.125000E-02
 3.790000E-02  0.000000E+00  1.125000E-02
 4.548000E-02  0.000000E+00  1.125000E-02
 5.306000E-02  0.000000E+00  1.125000E-02
 6.064000E-02  0.000000E+00  1.125000E-02
 6.822000E-02  0.000000E+00  1.125000E-02
 7.580000E-02  0.000000E+00  1.125000E-02
 8.338000E-02  0.000000E+00  1.125000E-02
 9.096000E-02  0.000000E+00  1.125000E-02
 9.854000E-02  0.000000E+00  1.125000E-02
 1.061200E-01  0.000000E+00  1.125000E-02
 1.137000E-01  0.000000E+00  1.125000E-02
 1.212800E-01  0.000000E+00  1.125000E-02
 1.288600E-01  0.000000E+00  1.125000E-02
 1.364400E-01  0.000000E+00  1.125000E-02
 1.440200E-01  0.000000E+00  1.125000E-02
 1.516000E-01  0.000000E+00  1.125000E-02
 0.000000E+00  1.125000E-02  1.125000E-02
 7.580000E-03  1.125000E-02  1.125000E-02
 1.516000E-02  1.125000E-02  1.125000E-02
 2.274000E-02  1.125000E-02  1.125000E-02
 3.032000E-02  1.125000E-02  1.125000E-02
 3.790000E-02  1.125000E-02  1.125000E-02
 4.548000E-02  1.125000E-02  1.125000E-02
 5.306000E-02  1.125000E-02  1.125000E-02
 6.064000E-02  1.125000E-02  1.125000E-02
 6.822000E-02  1.125000E-02  1.125000E-02
 7.580000E-02  1.125000E-02  1.125000E-02
 8.338000E-02  1.125000E-02  1.125000E-02
 9.096000E-02  1.125000E-02  1.125000E-02
 9.854000E-02  1.125000E-02  1.125000E-02
 1.061200E-01  1.125000E-02  1.125000E-02
 1.137000E-01  1.125000E-02  1.125000E-02
 1.212800E-01  1.125000E-02  1.125000E-02
 1.288600E-01  1.125000E-02  1.125000E-02
 1.364400E-01  1.125000E-02  1.125000E-02
 1.440200E-01  1.125000E-02  1.125000E-02
 1.516000E-01  1.125000E-02  1.125000E-02
CELLS           20          180
8        0        1       22       21       42       43       64       63
8        1        2       23       22       43       44       65       64
8        2        3       24       23       44       45       66       65
8        3        4       25       24       45       46       67       66
8        4        5       26       25       46       47       68       67
8        5        6       27       26       47       48       69       68
8        6        7       28       27       48       49       70       69
8        7        8       29       28       49       50       71       70
8        8        9       30       29       50       51       72       71
8        9       10       31       30       51       52       73       72
8       10       11       32       31       52       53       74       73
8       11       12       33       32       53       54       75       74
8       12       13       34       33       54       55       76       75
8       13       14       35       34       55       56       77       76
8       14       15       36       35       56       57       78       77
8       15       16       37       36       57       58       79       78
8       16       17       38       37       58       59       80       79
8       17       18       39       38       59       60       81       80
8       18       19       40       39       60       61       82       81
8       19       20       41       40       61       62       83       82

CELL_TYPES           20
12
12
12
12
12
12
12
12
12
12
12
12
12
12
12
12
12
12
12
12

CELL_DATA       20
SCALARS Porosity             float 1
LOOKUP_TABLE default
 9.892661E-01  9.889491E-01  9.886928E-01  9.884753E-01  9.882854E-01  9.881163E-01  9.879633E-01  9.878230E-01  9.876931E-01  9.875715E-01
 9.874568E-01  9.873479E-01  9.872438E-01  9.871436E-01  9.870468E-01  9.869529E-01  9.868612E-01  9.867716E-01  9.866835E-01  9.865970E-01


SCALARS Permeability_X       float 1
LOOKUP_TABLE default
 1.000000E-12  1.000000E-12  1.000000E-12  1.000000E-12  1.000000E-12  1.000000E-12  1.000000E-12  1.000000E-12  1.000000E-12  1.000000E-12
 1.000000E-12  1.000000E-12  1.000000E-12  1.000000E-12  1.000000E-12  1.000000E-12  1.000000E-12  1.000000E-12  1.000000E-12  1.000000E-12


SCALARS Liquid_Pressure      float 1
LOOKUP_TABLE default
 7.500296E+06  7.500281E+06  7.500266E+06  7.500250E+06  7.500235E+06  7.500220E+06  7.500205E+06  7.500190E+06  7.500175E+06  7.500159E+06
 7.500144E+06  7.500129E+06  7.500114E+06  7.500099E+06  7.500083E+06  7.500068E+06  7.500053E+06  7.500038E+06  7.500023E+06  7.500008E+06


SCALARS Temperature          float 1
LOOKUP_TABLE default
 1.500000E+02  1.500000E+02  1.500000E+02  1.500000E+02  1.499999E+02  1.499999E+02  1.499999E+02  1.499999E+02  1.499999E+02  1.499999E+02
 1.499999E+02  1.499999E+02  1.499999E+02  1.499999E+02  1.499999E+02  1.499999E+02  1.499999E+02  1.499999E+02  1.499999E+02  1.500000E+02


SCALARS pH                   float 1
LOOKUP_TABLE default
 4.788662E+00  4.854636E+00  4.916862E+00  4.974493E+00  5.027537E+00  5.076343E+00  5.121362E+00  5.163049E+00  5.201822E+00  5.238047E+00
 5.272045E+00  5.304087E+00  5.334407E+00  5.363207E+00  5.390657E+00  5.416905E+00  5.442082E+00  5.466297E+00  5.489647E+00  5.512159E+00


SCALARS Total_H+             float 1
LOOKUP_TABLE default
-3.551030E-04 -3.894151E-04 -4.260910E-04 -4.644327E-04 -5.040069E-04 -5.445386E-04 -5.858528E-04 -6.278392E-04 -6.704310E-04 -7.135912E-04
-7.573037E-04 -8.015672E-04 -8.463909E-04 -8.917925E-04 -9.377952E-04 -9.844271E-04 -1.031720E-03 -1.079706E-03 -1.128424E-03 -1.177777E-03


SCALARS Total_SiO2(aq)       float 1
LOOKUP_TABLE default
 1.405422E-02  1.404881E-02  1.404313E-02  1.403717E-02  1.403091E-02  1.402436E-02  1.401754E-02  1.401043E-02  1.400306E-02  1.399543E-02
 1.398754E-02  1.397940E-02  1.397101E-02  1.396238E-02  1.395352E-02  1.394442E-02  1.393510E-02  1.392555E-02  1.391577E-02  1.390580E-02


SCALARS Total_Al+++          float 1
LOOKUP_TABLE default
 6.015348E-05  6.015348E-05  6.015348E-05  6.015348E-05  6.015348E-05  6.015348E-05  6.015348E-05  6.015348E-05  6.015348E-05  6.015348E-05
 6.015348E-05  6.015348E-05  6.015348E-05  6.015348E-05  6.015348E-05  6.015348E-05  6.015348E-05  6.015348E-05  6.015348E-05  6.015348E-05


SCALARS Total_Ca++           float 1
LOOKUP_TABLE default
 8.501856E-05  1.021746E-04  1.205126E-04  1.396834E-04  1.594705E-04  1.797364E-04  2.003935E-04  2.213867E-04  2.426826E-04  2.642627E-04
 2.861189E-04  3.082506E-04  3.306625E-04  3.533633E-04  3.763647E-04  3.996806E-04  4.233268E-04  4.473203E-04  4.716788E-04  4.963554E-04


SCALARS Total_Cl-            float 1
LOOKUP_TABLE default
 2.513233E-02  2.513233E-02  2.513233E-02  2.513233E-02  2.513233E-02  2.513233E-02  2.513233E-02  2.513233E-02  2.513233E-02  2.513233E-02
 2.513233E-02  2.513233E-02  2.513233E-02  2.513233E-02  2.513233E-02  2.513233E-02  2.513233E-02  2.513233E-02  2.513233E-02  2.513233E-02


SCALARS Total_CO2(aq)        float 1
LOOKUP_TABLE default
 1.358172E-02  1.359887E-02  1.361721E-02  1.363638E-02  1.365617E-02  1.367644E-02  1.369709E-02  1.371809E-02  1.373938E-02  1.376096E-02
 1.378282E-02  1.380495E-02  1.382736E-02  1.385006E-02  1.387306E-02  1.389638E-02  1.392003E-02  1.394402E-02  1.396838E-02  1.399305E-02


SCALARS Total_Na+            float 1
LOOKUP_TABLE default
 3.122900E-02  3.122900E-02  3.122900E-02  3.122900E-02  3.122900E-02  3.122900E-02  3.122900E-02  3.122900E-02  3.122900E-02  3.122900E-02
 3.122900E-02  3.122900E-02  3.122900E-02  3.122900E-02  3.122900E-02  3.122900E-02  3.122900E-02  3.122900E-02  3.122900E-02  3.122900E-02


SCALARS Total_K+             float 1
LOOKUP_TABLE default
 2.655416E-03  2.655416E-03  2.655416E-03  2.655416E-03  2.655416E-03  2.655416E-03  2.655416E-03  2.655416E-03  2.655416E-03  2.655416E-03
 2.655416E-03  2.655416E-03  2.655416E-03  2.655416E-03  2.655416E-03  2.655416E-03  2.655416E-03  2.655416E-03  2.655416E-03  2.655415E-03


SCALARS Total_Mg++           float 1
LOOKUP_TABLE default
 8.216757E-07  8.216757E-07  8.216757E-07  8.216757E-07  8.216757E-07  8.216757E-07  8.216757E-07  8.216757E-07  8.216757E-07  8.216757E-07
 8.216757E-07  8.216757E-07  8.216757E-07  8.216756E-07  8.216756E-07  8.216756E-07  8.216756E-07  8.216756E-07  8.216756E-07  8.216756E-07


SCALARS Total_Fe++           float 1
LOOKUP_TABLE default
 1.251593E-06  1.251593E-06  1.251593E-06  1.251593E-06  1.251593E-06  1.251593E-06  1.251593E-06  1.251593E-06  1.251593E-06  1.251593E-06
 1.251593E-06  1.251593E-06  1.251593E-06  1.251593E-06  1.251593E-06  1.251592E-06  1.251592E-06  1.251592E-06  1.251592E-06  1.251592E-06


SCALARS Total_Cu++           float 1
LOOKUP_TABLE default
 9.952832E-11  9.952832E-11  9.952832E-11  9.952832E-11  9.952832E-11  9.952832E-11  9.952832E-11  9.952832E-11  9.952832E-11  9.952832E-11
 9.952832E-11  9.952832E-11  9.952832E-11  9.952832E-11  9.952832E-11  9.952832E-11  9.952832E-11  9.952832E-11  9.952832E-11  9.952832E-11


SCALARS Total_SO4--          float 1
LOOKUP_TABLE default
 4.376188E-03  4.376188E-03  4.376188E-03  4.376188E-03  4.376188E-03  4.376188E-03  4.376188E-03  4.376188E-03  4.376188E-03  4.376188E-03
 4.376188E-03  4.376188E-03  4.376188E-03  4.376188E-03  4.376188E-03  4.376188E-03  4.376188E-03  4.376188E-03  4.376188E-03  4.376188E-03


SCALARS Total_Tracer         float 1
LOOKUP_TABLE default
 9.952832E-11  9.952832E-11  9.952832E-11  9.952832E-11  9.952832E-11  9.952832E-11  9.952832E-11  9.952832E-11  9.952832E-11  9.952832E-11
 9.952832E-11  9.952832E-11  9.952832E-11  9.952832E-11  9.952832E-11  9.952832E-11  9.952832E-11  9.952832E-11  9.952832E-11  9.952832E-11


SCALARS Active_Gas_CO2(g)    float 1
LOOKUP_TABLE default
 0.000000E+00  0.000000E+00  0.000000E+00  0.000000E+00  0.000000E+00  0.000000E+00  0.000000E+00  0.000000E+00  0.000000E+00  0.000000E+00
 0.000000E+00  0.000000E+00  0.000000E+00  0.000000E+00  0.000000E+00  0.000000E+00  0.000000E+00  0.000000E+00  0.000000E+00  0.000000E+00


SCALARS HCO3-                float 1
LOOKUP_TABLE default
 1.873925E-04  2.179223E-04  2.512186E-04  2.865286E-04  3.233461E-04  3.613307E-04  4.002546E-04  4.399663E-04  4.803675E-04  5.213963E-04
 5.630168E-04  6.052119E-04  6.479778E-04  6.913210E-04  7.352553E-04  7.798001E-04  8.249792E-04  8.708195E-04  9.173500E-04  9.644762E-04


SCALARS H2SiO4--             float 1
LOOKUP_TABLE default
 4.542243E-13  6.153180E-13  8.192756E-13  1.067987E-12  1.363086E-12  1.706069E-12  2.098410E-12  2.541637E-12  3.037391E-12  3.587466E-12
 4.193834E-12  4.858670E-12  5.584367E-12  6.373554E-12  7.229112E-12  8.154182E-12  9.152181E-12  1.022682E-11  1.138209E-11  1.261892E-11


SCALARS H3SiO4-              float 1
LOOKUP_TABLE default
 1.488279E-06  1.731797E-06  1.997809E-06  2.280383E-06  2.575529E-06  2.880566E-06  3.193700E-06  3.513745E-06  3.839932E-06  4.171787E-06
 4.509042E-06  4.851582E-06  5.199400E-06  5.552574E-06  5.911246E-06  6.275604E-06  6.645875E-06  7.022317E-06  7.405208E-06  7.793810E-06


SCALARS Calcite_VF           float 1
LOOKUP_TABLE default
 1.010775E-02  1.034438E-02  1.053354E-02  1.069301E-02  1.083159E-02  1.095469E-02  1.106598E-02  1.116809E-02  1.126296E-02  1.135209E-02
 1.143663E-02  1.151750E-02  1.159545E-02  1.167109E-02  1.174491E-02  1.181735E-02  1.188876E-02  1.195946E-02  1.202972E-02  1.209960E-02


SCALARS SiO2(am)_VF          float 1
LOOKUP_TABLE default
 6.201694E-04  6.996941E-04  7.662958E-04  8.240302E-04  8.751319E-04  9.210153E-04  9.626477E-04  1.000725E-03  1.035768E-03  1.068175E-03
 1.098262E-03  1.126279E-03  1.152431E-03  1.176888E-03  1.199790E-03  1.221256E-03  1.241388E-03  1.260271E-03  1.277980E-03  1.294541E-03


SCALARS Calcite_Rate         float 1
LOOKUP_TABLE default
-2.046139E-05 -2.282657E-05 -2.439093E-05 -2.548975E-05 -2.629967E-05 -2.692631E-05 -2.743617E-05 -2.787256E-05 -2.826442E-05 -2.863156E-05
-2.898783E-05 -2.934310E-05 -2.970456E-05 -3.007749E-05 -3.046586E-05 -3.087265E-05 -3.130016E-05 -3.175012E-05 -3.222379E-05 -3.272096E-05


SCALARS SiO2(am)_Rate        float 1
LOOKUP_TABLE default
 6.885755E-06  7.197266E-06  7.560402E-06  7.942135E-06  8.327289E-06  8.708563E-06  9.082533E-06  9.447775E-06  9.803924E-06  1.015117E-05
 1.049000E-05  1.082103E-05  1.114493E-05  1.146238E-05  1.177405E-05  1.208057E-05  1.238255E-05  1.268054E-05  1.297506E-05  1.326582E-05


SCALARS Calcite_Area         float 1
LOOKUP_TABLE default
 3.871390E-01  4.882926E-01  5.855555E-01  6.806791E-01  7.743571E-01  8.671056E-01  9.594157E-01  1.051778E+00  1.144683E+00  1.238623E+00
 1.334084E+00  1.431558E+00  1.531536E+00  1.634519E+00  1.741019E+00  1.851565E+00  1.966709E+00  2.087030E+00  2.213139E+00  2.345345E+00


SCALARS SiO2(am)_Area        float 1
LOOKUP_TABLE default
 1.173996E+05  1.127622E+05  1.093910E+05  1.067716E+05  1.046502E+05  1.028820E+05  1.013767E+05  1.000744E+05  9.893305E+04  9.792263E+04
 9.702065E+04  9.620996E+04  9.547725E+04  9.481193E+04  9.420551E+04  9.365105E+04  9.314286E+04  9.267616E+04  9.224696E+04  9.185281E+04


SCALARS Material_ID          int 1
LOOKUP_TABLE default
  1
  1
  1
  1
  1
  1
  1
  1
  1
  1
  1
  1
  1
  1
  1
  1
  1
  1
  1
  1


