# vtk DataFile Version 2.0
PFLOTRAN output
ASCII
DATASET UNSTRUCTURED_GRID
POINTS           84 float
 0.000000E+00  0.000000E+00  0.000000E+00
 7.580000E-03  0.000000E+00  0.000000E+00
 1.516000E-02  0.000000E+00  0.000000E+00
 2.274000E-02  0.000000E+00  0.000000E+00
 3.032000E-02  0.000000E+00  0.000000E+00
 3.790000E-02  0.000000E+00  0.000000E+00
 4.548000E-02  0.000000E+00  0.000000E+00
 5.306000E-02  0.000000E+00  0.000000E+00
 6.064000E-02  0.000000E+00  0.000000E+00
 6.822000E-02  0.000000E+00  0.000000E+00
 7.580000E-02  0.000000E+00  0.000000E+00
 8.338000E-02  0.000000E+00  0.000000E+00
 9.096000E-02  0.000000E+00  0.000000E+00
 9.854000E-02  0.000000E+00  0.000000E+00
 1.061200E-01  0.000000E+00  0.000000E+00
 1.137000E-01  0.000000E+00  0.000000E+00
 1.212800E-01  0.000000E+00  0.000000E+00
 1.288600E-01  0.000000E+00  0.000000E+00
 1.364400E-01  0.000000E+00  0.000000E+00
 1.440200E-01  0.000000E+00  0.000000E+00
 1.516000E-01  0.000000E+00  0.000000E+00
 0.000000E+00  1.125000E-02  0.000000E+00
 7.580000E-03  1.125000E-02  0.000000E+00
 1.516000E-02  1.125000E-02  0.000000E+00
 2.274000E-02  1.125000E-02  0.000000E+00
 3.032000E-02  1.125000E-02  0.000000E+00
 3.790000E-02  1.125000E-02  0.000000E+00
 4.548000E-02  1.125000E-02  0.000000E+00
 5.306000E-02  1.125000E-02  0.000000E+00
 6.064000E-02  1.125000E-02  0.000000E+00
 6.822000E-02  1.125000E-02  0.000000E+00
 7.580000E-02  1.125000E-02  0.000000E+00
 8.338000E-02  1.125000E-02  0.000000E+00
 9.096000E-02  1.125000E-02  0.000000E+00
 9.854000E-02  1.125000E-02  0.000000E+00
 1.061200E-01  1.125000E-02  0.000000E+00
 1.137000E-01  1.125000E-02  0.000000E+00
 1.212800E-01  1.125000E-02  0.000000E+00
 1.288600E-01  1.125000E-02  0.000000E+00
 1.364400E-01  1.125000E-02  0.000000E+00
 1.440200E-01  1.125000E-02  0.000000E+00
 1.516000E-01  1.125000E-02  0.000000E+00
 0.000000E+00  0.000000E+00  1.125000E-02
 7.580000E-03  0.000000E+00  1.125000E-02
 1.516000E-02  0.000000E+00  1.125000E-02
 2.274000E-02  0.000000E+00  1.125000E-02
 3.032000E-02  0.000000E+00  1.125000E-02
 3.790000E-02  0.000000E+00  1.125000E-02
 4.548000E-02  0.000000E+00  1.125000E-02
 5.306000E-02  0.000000E+00  1.125000E-02
 6.064000E-02  0.000000E+00  1.125000E-02
 6.822000E-02  0.000000E+00  1.125000E-02
 7.580000E-02  0.000000E+00  1.125000E-02
 8.338000E-02  0.000000E+00  1.125000E-02
 9.096000E-02  0.000000E+00  1.125000E-02
 9.854000E-02  0.000000E+00  1.125000E-02
 1.061200E-01  0.000000E+00  1.125000E-02
 1.137000E-01  0.000000E+00  1.125000E-02
 1.212800E-01  0.000000E+00  1.125000E-02
 1.288600E-01  0.000000E+00  1.125000E-02
 1.364400E-01  0.000000E+00  1.125000E-02
 1.440200E-01  0.000000E+00  1.125000E-02
 1.516000E-01  0.000000E+00  1.125000E-02
 0.000000E+00  1.125000E-02  1.125000E-02
 7.580000E-03  1.125000E-02  1.125000E-02
 1.516000E-02  1.125000E-02  1.125000E-02
 2.274000E-02  1.125000E-02  1.125000E-02
 3.032000E-02  1.125000E-02  1.125000E-02
 3.790000E-02  1.125000E-02  1.125000E-02
 4.548000E-02  1.125000E-02  1.125000E-02
 5.306000E-02  1.125000E-02  1.125000E-02
 6.064000E-02  1.125000E-02  1.125000E-02
 6.822000E-02  1.125000E-02  1.125000E-02
 7.580000E-02  1.125000E-02  1.125000E-02
 8.338000E-02  1.125000E-02  1.125000E-02
 9.096000E-02  1.125000E-02  1.125000E-02
 9.854000E-02  1.125000E-02  1.125000E-02
 1.061200E-01  1.125000E-02  1.125000E-02
 1.137000E-01  1.125000E-02  1.125000E-02
 1.212800E-01  1.125000E-02  1.125000E-02
 1.288600E-01  1.125000E-02  1.125000E-02
 1.364400E-01  1.125000E-02  1.125000E-02
 1.440200E-01  1.125000E-02  1.125000E-02
 1.516000E-01  1.125000E-02  1.125000E-02
CELLS           20          180
8        0        1       22       21       42       43       64       63
8        1        2       23       22       43       44       65       64
8        2        3       24       23       44       45       66       65
8        3        4       25       24       45       46       67       66
8        4        5       26       25       46       47       68       67
8        5        6       27       26       47       48       69       68
8        6        7       28       27       48       49       70       69
8        7        8       29       28       49       50       71       70
8        8        9       30       29       50       51       72       71
8        9       10       31       30       51       52       73       72
8       10       11       32       31       52       53       74       73
8       11       12       33       32       53       54       75       74
8       12       13       34       33       54       55       76       75
8       13       14       35       34       55       56       77       76
8       14       15       36       35       56       57       78       77
8       15       16       37       36       57       58       79       78
8       16       17       38       37       58       59       80       79
8       17       18       39       38       59       60       81       80
8       18       19       40       39       60       61       82       81
8       19       20       41       40       61       62       83       82

CELL_TYPES           20
12
12
12
12
12
12
12
12
12
12
12
12
12
12
12
12
12
12
12
12

CELL_DATA       20
SCALARS Porosity             float 1
LOOKUP_TABLE default
 9.894695E-01  9.891823E-01  9.889449E-01  9.887397E-01  9.885580E-01  9.883945E-01  9.882454E-01  9.881079E-01  9.879801E-01  9.878603E-01
 9.877472E-01  9.876399E-01  9.875374E-01  9.874391E-01  9.873443E-01  9.872527E-01  9.871637E-01  9.870769E-01  9.869921E-01  9.869092E-01


SCALARS Permeability_X       float 1
LOOKUP_TABLE default
 1.000000E-12  1.000000E-12  1.000000E-12  1.000000E-12  1.000000E-12  1.000000E-12  1.000000E-12  1.000000E-12  1.000000E-12  1.000000E-12
 1.000000E-12  1.000000E-12  1.000000E-12  1.000000E-12  1.000000E-12  1.000000E-12  1.000000E-12  1.000000E-12  1.000000E-12  1.000000E-12


SCALARS Liquid_Pressure      float 1
LOOKUP_TABLE default
 7.500296E+06  7.500281E+06  7.500266E+06  7.500250E+06  7.500235E+06  7.500220E+06  7.500205E+06  7.500190E+06  7.500175E+06  7.500159E+06
 7.500144E+06  7.500129E+06  7.500114E+06  7.500099E+06  7.500083E+06  7.500068E+06  7.500053E+06  7.500038E+06  7.500023E+06  7.500008E+06


SCALARS Temperature          float 1
LOOKUP_TABLE default
 1.500000E+02  1.500000E+02  1.500000E+02  1.500000E+02  1.500000E+02  1.500000E+02  1.499999E+02  1.499999E+02  1.499999E+02  1.499999E+02
 1.499999E+02  1.499999E+02  1.499999E+02  1.499999E+02  1.499999E+02  1.499999E+02  1.499999E+02  1.499999E+02  1.500000E+02  1.500000E+02


SCALARS pH                   float 1
LOOKUP_TABLE default
 4.774053E+00  4.826887E+00  4.878184E+00  4.926997E+00  4.972993E+00  5.016154E+00  5.056618E+00  5.094588E+00  5.130289E+00  5.163942E+00
 5.195754E+00  5.225913E+00  5.254588E+00  5.281931E+00  5.308073E+00  5.333134E+00  5.357218E+00  5.380418E+00  5.402817E+00  5.424431E+00


SCALARS Total_H+             float 1
LOOKUP_TABLE default
-3.480651E-04 -3.744541E-04 -4.027628E-04 -4.325103E-04 -4.633757E-04 -4.951393E-04 -5.276499E-04 -5.608031E-04 -5.945283E-04 -6.287786E-04
-6.635249E-04 -6.987513E-04 -7.344517E-04 -7.706277E-04 -8.072870E-04 -8.444420E-04 -8.821088E-04 -9.203071E-04 -9.590588E-04 -9.982839E-04


SCALARS Total_SiO2(aq)       float 1
LOOKUP_TABLE default
 1.405453E-02  1.404951E-02  1.404431E-02  1.403890E-02  1.403327E-02  1.402743E-02  1.402137E-02  1.401509E-02  1.400860E-02  1.400190E-02
 1.399499E-02  1.398788E-02  1.398057E-02  1.397307E-02  1.396537E-02  1.395748E-02  1.394940E-02  1.394114E-02  1.393270E-02  1.392409E-02


SCALARS Total_Al+++          float 1
LOOKUP_TABLE default
 6.015348E-05  6.015348E-05  6.015348E-05  6.015348E-05  6.015348E-05  6.015348E-05  6.015348E-05  6.015348E-05  6.015348E-05  6.015348E-05
 6.015348E-05  6.015348E-05  6.015348E-05  6.015348E-05  6.015348E-05  6.015348E-05  6.015348E-05  6.015348E-05  6.015348E-05  6.015348E-05


SCALARS Total_Ca++           float 1
LOOKUP_TABLE default
 8.149962E-05  9.469412E-05  1.088485E-04  1.237222E-04  1.391549E-04  1.550367E-04  1.712920E-04  1.878686E-04  2.047312E-04  2.218564E-04
 2.392295E-04  2.568427E-04  2.746929E-04  2.927809E-04  3.111106E-04  3.296881E-04  3.485215E-04  3.676206E-04  3.869965E-04  4.066090E-04


SCALARS Total_Cl-            float 1
LOOKUP_TABLE default
 2.513233E-02  2.513233E-02  2.513233E-02  2.513233E-02  2.513233E-02  2.513233E-02  2.513233E-02  2.513233E-02  2.513233E-02  2.513233E-02
 2.513233E-02  2.513233E-02  2.513233E-02  2.513233E-02  2.513233E-02  2.513233E-02  2.513233E-02  2.513233E-02  2.513233E-02  2.513233E-02


SCALARS Total_CO2(aq)        float 1
LOOKUP_TABLE default
 1.357820E-02  1.359139E-02  1.360555E-02  1.362042E-02  1.363585E-02  1.365174E-02  1.366799E-02  1.368457E-02  1.370143E-02  1.371856E-02
 1.373593E-02  1.375354E-02  1.377139E-02  1.378948E-02  1.380781E-02  1.382639E-02  1.384522E-02  1.386432E-02  1.388370E-02  1.390331E-02


SCALARS Total_Na+            float 1
LOOKUP_TABLE default
 3.122900E-02  3.122900E-02  3.122900E-02  3.122900E-02  3.122900E-02  3.122900E-02  3.122900E-02  3.122900E-02  3.122900E-02  3.122900E-02
 3.122900E-02  3.122900E-02  3.122900E-02  3.122900E-02  3.122900E-02  3.122900E-02  3.122900E-02  3.122900E-02  3.122900E-02  3.122900E-02


SCALARS Total_K+             float 1
LOOKUP_TABLE default
 2.655416E-03  2.655416E-03  2.655416E-03  2.655416E-03  2.655416E-03  2.655416E-03  2.655416E-03  2.655416E-03  2.655416E-03  2.655416E-03
 2.655416E-03  2.655416E-03  2.655416E-03  2.655416E-03  2.655416E-03  2.655416E-03  2.655416E-03  2.655416E-03  2.655416E-03  2.655416E-03


SCALARS Total_Mg++           float 1
LOOKUP_TABLE default
 8.216757E-07  8.216757E-07  8.216757E-07  8.216757E-07  8.216757E-07  8.216757E-07  8.216757E-07  8.216757E-07  8.216757E-07  8.216757E-07
 8.216757E-07  8.216757E-07  8.216757E-07  8.216756E-07  8.216756E-07  8.216756E-07  8.216756E-07  8.216756E-07  8.216756E-07  8.216756E-07


SCALARS Total_Fe++           float 1
LOOKUP_TABLE default
 1.251593E-06  1.251593E-06  1.251593E-06  1.251593E-06  1.251593E-06  1.251593E-06  1.251593E-06  1.251593E-06  1.251593E-06  1.251593E-06
 1.251593E-06  1.251593E-06  1.251593E-06  1.251593E-06  1.251593E-06  1.251592E-06  1.251592E-06  1.251592E-06  1.251592E-06  1.251592E-06


SCALARS Total_Cu++           float 1
LOOKUP_TABLE default
 9.952832E-11  9.952832E-11  9.952832E-11  9.952832E-11  9.952832E-11  9.952832E-11  9.952832E-11  9.952832E-11  9.952832E-11  9.952832E-11
 9.952832E-11  9.952832E-11  9.952832E-11  9.952832E-11  9.952832E-11  9.952832E-11  9.952832E-11  9.952832E-11  9.952832E-11  9.952832E-11


SCALARS Total_SO4--          float 1
LOOKUP_TABLE default
 4.376188E-03  4.376188E-03  4.376188E-03  4.376188E-03  4.376188E-03  4.376188E-03  4.376188E-03  4.376188E-03  4.376188E-03  4.376188E-03
 4.376188E-03  4.376188E-03  4.376188E-03  4.376188E-03  4.376188E-03  4.376188E-03  4.376188E-03  4.376188E-03  4.376188E-03  4.376188E-03


SCALARS Total_Tracer         float 1
LOOKUP_TABLE default
 9.952832E-11  9.952832E-11  9.952832E-11  9.952832E-11  9.952832E-11  9.952832E-11  9.952832E-11  9.952832E-11  9.952832E-11  9.952832E-11
 9.952832E-11  9.952832E-11  9.952832E-11  9.952832E-11  9.952832E-11  9.952832E-11  9.952832E-11  9.952832E-11  9.952832E-11  9.952832E-11


SCALARS Active_Gas_CO2(g)    float 1
LOOKUP_TABLE default
 0.000000E+00  0.000000E+00  0.000000E+00  0.000000E+00  0.000000E+00  0.000000E+00  0.000000E+00  0.000000E+00  0.000000E+00  0.000000E+00
 0.000000E+00  0.000000E+00  0.000000E+00  0.000000E+00  0.000000E+00  0.000000E+00  0.000000E+00  0.000000E+00  0.000000E+00  0.000000E+00


SCALARS HCO3-                float 1
LOOKUP_TABLE default
 1.812287E-04  2.045225E-04  2.299741E-04  2.571000E-04  2.855504E-04  3.150706E-04  3.454762E-04  3.766343E-04  4.084505E-04  4.408583E-04
 4.738124E-04  5.072836E-04  5.412545E-04  5.757174E-04  6.106717E-04  6.461227E-04  6.820803E-04  7.185583E-04  7.555733E-04  7.930453E-04


SCALARS H2SiO4--             float 1
LOOKUP_TABLE default
 4.246701E-13  5.415051E-13  6.856080E-13  8.581825E-13  1.060339E-12  1.293111E-12  1.557497E-12  1.854499E-12  2.185155E-12  2.550566E-12
 2.951911E-12  3.390465E-12  3.867610E-12  4.384850E-12  4.943816E-12  5.546282E-12  6.194171E-12  6.889565E-12  7.634715E-12  8.429885E-12


SCALARS H3SiO4-              float 1
LOOKUP_TABLE default
 1.439075E-06  1.624678E-06  1.827714E-06  2.044371E-06  2.271892E-06  2.508270E-06  2.752053E-06  3.002199E-06  3.257966E-06  3.518836E-06
 3.784461E-06  4.054619E-06  4.329186E-06  4.608114E-06  4.891414E-06  5.179148E-06  5.471414E-06  5.768344E-06  6.070095E-06  6.376036E-06


SCALARS Calcite_VF           float 1
LOOKUP_TABLE default
 9.822599E-03  1.002646E-02  1.019311E-02  1.033623E-02  1.046243E-02  1.057577E-02  1.067905E-02  1.077429E-02  1.086304E-02  1.094651E-02
 1.102564E-02  1.110121E-02  1.117386E-02  1.124409E-02  1.131237E-02  1.137905E-02  1.144447E-02  1.150889E-02  1.157257E-02  1.163556E-02


SCALARS SiO2(am)_VF          float 1
LOOKUP_TABLE default
 7.036664E-04  7.863169E-04  8.566900E-04  9.184734E-04  9.737223E-04  1.023758E-03  1.069499E-03  1.111617E-03  1.150622E-03  1.186908E-03
 1.220793E-03  1.252531E-03  1.282333E-03  1.310372E-03  1.336795E-03  1.361728E-03  1.385278E-03  1.407535E-03  1.428581E-03  1.448436E-03


SCALARS Calcite_Rate         float 1
LOOKUP_TABLE default
-1.576728E-05 -1.755826E-05 -1.883046E-05 -1.978189E-05 -2.051925E-05 -2.111018E-05 -2.160015E-05 -2.202063E-05 -2.239387E-05 -2.273590E-05
-2.305847E-05 -2.337032E-05 -2.367805E-05 -2.398676E-05 -2.430043E-05 -2.462224E-05 -2.495476E-05 -2.530011E-05 -2.566010E-05 -2.603534E-05


SCALARS SiO2(am)_Rate        float 1
LOOKUP_TABLE default
 6.476540E-06  6.676675E-06  6.927284E-06  7.202221E-06  7.488151E-06  7.777734E-06  8.066834E-06  8.353138E-06  8.635409E-06  8.913053E-06
 9.185870E-06  9.453895E-06  9.717308E-06  9.976371E-06  1.023139E-05  1.048271E-05  1.073066E-05  1.097558E-05  1.121780E-05  1.145702E-05


SCALARS Calcite_Area         float 1
LOOKUP_TABLE default
 2.903083E-01  3.567163E-01  4.208050E-01  4.838946E-01  5.464335E-01  6.086857E-01  6.708768E-01  7.332301E-01  7.959743E-01  8.593444E-01
 9.235807E-01  9.889286E-01  1.055639E+00  1.123968E+00  1.194181E+00  1.266551E+00  1.341363E+00  1.418915E+00  1.499521E+00  1.583296E+00


SCALARS SiO2(am)_Area        float 1
LOOKUP_TABLE default
 1.125368E+05  1.084390E+05  1.053800E+05  1.029594E+05  1.009725E+05  9.929899E+04  9.786213E+04  9.660992E+04  9.550562E+04  9.452228E+04
 9.363968E+04  9.284221E+04  9.211764E+04  9.145620E+04  9.084998E+04  9.029250E+04  8.977838E+04  8.930312E+04  8.886292E+04  8.845555E+04


SCALARS Material_ID          int 1
LOOKUP_TABLE default
  1
  1
  1
  1
  1
  1
  1
  1
  1
  1
  1
  1
  1
  1
  1
  1
  1
  1
  1
  1


