# vtk DataFile Version 2.0
PFLOTRAN output
ASCII
DATASET UNSTRUCTURED_GRID
POINTS           84 float
 0.000000E+00  0.000000E+00  0.000000E+00
 7.580000E-03  0.000000E+00  0.000000E+00
 1.516000E-02  0.000000E+00  0.000000E+00
 2.274000E-02  0.000000E+00  0.000000E+00
 3.032000E-02  0.000000E+00  0.000000E+00
 3.790000E-02  0.000000E+00  0.000000E+00
 4.548000E-02  0.000000E+00  0.000000E+00
 5.306000E-02  0.000000E+00  0.000000E+00
 6.064000E-02  0.000000E+00  0.000000E+00
 6.822000E-02  0.000000E+00  0.000000E+00
 7.580000E-02  0.000000E+00  0.000000E+00
 8.338000E-02  0.000000E+00  0.000000E+00
 9.096000E-02  0.000000E+00  0.000000E+00
 9.854000E-02  0.000000E+00  0.000000E+00
 1.061200E-01  0.000000E+00  0.000000E+00
 1.137000E-01  0.000000E+00  0.000000E+00
 1.212800E-01  0.000000E+00  0.000000E+00
 1.288600E-01  0.000000E+00  0.000000E+00
 1.364400E-01  0.000000E+00  0.000000E+00
 1.440200E-01  0.000000E+00  0.000000E+00
 1.516000E-01  0.000000E+00  0.000000E+00
 0.000000E+00  1.125000E-02  0.000000E+00
 7.580000E-03  1.125000E-02  0.000000E+00
 1.516000E-02  1.125000E-02  0.000000E+00
 2.274000E-02  1.125000E-02  0.000000E+00
 3.032000E-02  1.125000E-02  0.000000E+00
 3.790000E-02  1.125000E-02  0.000000E+00
 4.548000E-02  1.125000E-02  0.000000E+00
 5.306000E-02  1.125000E-02  0.000000E+00
 6.064000E-02  1.125000E-02  0.000000E+00
 6.822000E-02  1.125000E-02  0.000000E+00
 7.580000E-02  1.125000E-02  0.000000E+00
 8.338000E-02  1.125000E-02  0.000000E+00
 9.096000E-02  1.125000E-02  0.000000E+00
 9.854000E-02  1.125000E-02  0.000000E+00
 1.061200E-01  1.125000E-02  0.000000E+00
 1.137000E-01  1.125000E-02  0.000000E+00
 1.212800E-01  1.125000E-02  0.000000E+00
 1.288600E-01  1.125000E-02  0.000000E+00
 1.364400E-01  1.125000E-02  0.000000E+00
 1.440200E-01  1.125000E-02  0.000000E+00
 1.516000E-01  1.125000E-02  0.000000E+00
 0.000000E+00  0.000000E+00  1.125000E-02
 7.580000E-03  0.000000E+00  1.125000E-02
 1.516000E-02  0.000000E+00  1.125000E-02
 2.274000E-02  0.000000E+00  1.125000E-02
 3.032000E-02  0.000000E+00  1.125000E-02
 3.790000E-02  0.000000E+00  1.125000E-02
 4.548000E-02  0.000000E+00  1.125000E-02
 5.306000E-02  0.000000E+00  1.125000E-02
 6.064000E-02  0.000000E+00  1.125000E-02
 6.822000E-02  0.000000E+00  1.125000E-02
 7.580000E-02  0.000000E+00  1.125000E-02
 8.338000E-02  0.000000E+00  1.125000E-02
 9.096000E-02  0.000000E+00  1.125000E-02
 9.854000E-02  0.000000E+00  1.125000E-02
 1.061200E-01  0.000000E+00  1.125000E-02
 1.137000E-01  0.000000E+00  1.125000E-02
 1.212800E-01  0.000000E+00  1.125000E-02
 1.288600E-01  0.000000E+00  1.125000E-02
 1.364400E-01  0.000000E+00  1.125000E-02
 1.440200E-01  0.000000E+00  1.125000E-02
 1.516000E-01  0.000000E+00  1.125000E-02
 0.000000E+00  1.125000E-02  1.125000E-02
 7.580000E-03  1.125000E-02  1.125000E-02
 1.516000E-02  1.125000E-02  1.125000E-02
 2.274000E-02  1.125000E-02  1.125000E-02
 3.032000E-02  1.125000E-02  1.125000E-02
 3.790000E-02  1.125000E-02  1.125000E-02
 4.548000E-02  1.125000E-02  1.125000E-02
 5.306000E-02  1.125000E-02  1.125000E-02
 6.064000E-02  1.125000E-02  1.125000E-02
 6.822000E-02  1.125000E-02  1.125000E-02
 7.580000E-02  1.125000E-02  1.125000E-02
 8.338000E-02  1.125000E-02  1.125000E-02
 9.096000E-02  1.125000E-02  1.125000E-02
 9.854000E-02  1.125000E-02  1.125000E-02
 1.061200E-01  1.125000E-02  1.125000E-02
 1.137000E-01  1.125000E-02  1.125000E-02
 1.212800E-01  1.125000E-02  1.125000E-02
 1.288600E-01  1.125000E-02  1.125000E-02
 1.364400E-01  1.125000E-02  1.125000E-02
 1.440200E-01  1.125000E-02  1.125000E-02
 1.516000E-01  1.125000E-02  1.125000E-02
CELLS           20          180
8        0        1       22       21       42       43       64       63
8        1        2       23       22       43       44       65       64
8        2        3       24       23       44       45       66       65
8        3        4       25       24       45       46       67       66
8        4        5       26       25       46       47       68       67
8        5        6       27       26       47       48       69       68
8        6        7       28       27       48       49       70       69
8        7        8       29       28       49       50       71       70
8        8        9       30       29       50       51       72       71
8        9       10       31       30       51       52       73       72
8       10       11       32       31       52       53       74       73
8       11       12       33       32       53       54       75       74
8       12       13       34       33       54       55       76       75
8       13       14       35       34       55       56       77       76
8       14       15       36       35       56       57       78       77
8       15       16       37       36       57       58       79       78
8       16       17       38       37       58       59       80       79
8       17       18       39       38       59       60       81       80
8       18       19       40       39       60       61       82       81
8       19       20       41       40       61       62       83       82

CELL_TYPES           20
12
12
12
12
12
12
12
12
12
12
12
12
12
12
12
12
12
12
12
12

CELL_DATA       20
SCALARS Porosity             float 1
LOOKUP_TABLE default
 9.861747E-01  9.858294E-01  9.856352E-01  9.854999E-01  9.853946E-01  9.853070E-01  9.852313E-01  9.851643E-01  9.851043E-01  9.850503E-01
 9.850016E-01  9.849579E-01  9.849187E-01  9.848838E-01  9.848529E-01  9.848257E-01  9.848020E-01  9.847814E-01  9.847636E-01  9.847484E-01


SCALARS Permeability_X       float 1
LOOKUP_TABLE default
 1.000000E-12  1.000000E-12  1.000000E-12  1.000000E-12  1.000000E-12  1.000000E-12  1.000000E-12  1.000000E-12  1.000000E-12  1.000000E-12
 1.000000E-12  1.000000E-12  1.000000E-12  1.000000E-12  1.000000E-12  1.000000E-12  1.000000E-12  1.000000E-12  1.000000E-12  1.000000E-12


SCALARS Liquid_Pressure      float 1
LOOKUP_TABLE default
 7.500296E+06  7.500281E+06  7.500266E+06  7.500250E+06  7.500235E+06  7.500220E+06  7.500205E+06  7.500190E+06  7.500175E+06  7.500159E+06
 7.500144E+06  7.500129E+06  7.500114E+06  7.500099E+06  7.500083E+06  7.500068E+06  7.500053E+06  7.500038E+06  7.500023E+06  7.500008E+06


SCALARS Temperature          float 1
LOOKUP_TABLE default
 1.499999E+02  1.499999E+02  1.499998E+02  1.499997E+02  1.499997E+02  1.499996E+02  1.499996E+02  1.499996E+02  1.499995E+02  1.499995E+02
 1.499995E+02  1.499995E+02  1.499995E+02  1.499995E+02  1.499996E+02  1.499996E+02  1.499997E+02  1.499997E+02  1.499998E+02  1.499999E+02


SCALARS pH                   float 1
LOOKUP_TABLE default
 5.164553E+00  5.366624E+00  5.494134E+00  5.586182E+00  5.657506E+00  5.715146E+00  5.762983E+00  5.803375E+00  5.837863E+00  5.867516E+00
 5.893115E+00  5.915260E+00  5.934427E+00  5.951008E+00  5.965337E+00  5.977700E+00  5.988347E+00  5.997501E+00  6.005355E+00  6.012069E+00


SCALARS Total_H+             float 1
LOOKUP_TABLE default
-6.294403E-04 -8.974133E-04 -1.138149E-03 -1.358122E-03 -1.561012E-03 -1.748938E-03 -1.923141E-03 -2.084353E-03 -2.233038E-03 -2.369537E-03
-2.494168E-03 -2.607286E-03 -2.709317E-03 -2.800775E-03 -2.882253E-03 -2.954416E-03 -3.017977E-03 -3.073674E-03 -3.122253E-03 -3.164362E-03


SCALARS Total_SiO2(aq)       float 1
LOOKUP_TABLE default
 1.404681E-02  1.403108E-02  1.401302E-02  1.399310E-02  1.397163E-02  1.394885E-02  1.392493E-02  1.390003E-02  1.387428E-02  1.384780E-02
 1.382070E-02  1.379307E-02  1.376500E-02  1.373657E-02  1.370784E-02  1.367889E-02  1.364976E-02  1.362052E-02  1.359120E-02  1.356192E-02


SCALARS Total_Al+++          float 1
LOOKUP_TABLE default
 6.015348E-05  6.015348E-05  6.015348E-05  6.015348E-05  6.015348E-05  6.015349E-05  6.015349E-05  6.015349E-05  6.015349E-05  6.015348E-05
 6.015348E-05  6.015348E-05  6.015348E-05  6.015348E-05  6.015347E-05  6.015347E-05  6.015347E-05  6.015346E-05  6.015346E-05  6.015346E-05


SCALARS Total_Ca++           float 1
LOOKUP_TABLE default
 2.221872E-04  3.561737E-04  4.765415E-04  5.865282E-04  6.879729E-04  7.819362E-04  8.690373E-04  9.496434E-04  1.023986E-03  1.092236E-03
 1.154551E-03  1.211110E-03  1.262126E-03  1.307854E-03  1.348594E-03  1.384675E-03  1.416455E-03  1.444304E-03  1.468594E-03  1.489648E-03


SCALARS Total_Cl-            float 1
LOOKUP_TABLE default
 2.513233E-02  2.513233E-02  2.513233E-02  2.513233E-02  2.513233E-02  2.513233E-02  2.513233E-02  2.513233E-02  2.513233E-02  2.513233E-02
 2.513233E-02  2.513233E-02  2.513233E-02  2.513233E-02  2.513233E-02  2.513233E-02  2.513233E-02  2.513233E-02  2.513233E-02  2.513233E-02


SCALARS Total_CO2(aq)        float 1
LOOKUP_TABLE default
 1.371889E-02  1.385287E-02  1.397324E-02  1.408323E-02  1.418467E-02  1.427864E-02  1.436574E-02  1.444634E-02  1.452069E-02  1.458894E-02
 1.465125E-02  1.470781E-02  1.475883E-02  1.480455E-02  1.484529E-02  1.488137E-02  1.491315E-02  1.494100E-02  1.496529E-02  1.498635E-02


SCALARS Total_Na+            float 1
LOOKUP_TABLE default
 3.122900E-02  3.122900E-02  3.122900E-02  3.122900E-02  3.122900E-02  3.122900E-02  3.122900E-02  3.122900E-02  3.122900E-02  3.122900E-02
 3.122900E-02  3.122900E-02  3.122900E-02  3.122900E-02  3.122900E-02  3.122900E-02  3.122900E-02  3.122900E-02  3.122900E-02  3.122900E-02


SCALARS Total_K+             float 1
LOOKUP_TABLE default
 2.655416E-03  2.655416E-03  2.655416E-03  2.655416E-03  2.655416E-03  2.655416E-03  2.655416E-03  2.655416E-03  2.655416E-03  2.655416E-03
 2.655416E-03  2.655416E-03  2.655416E-03  2.655416E-03  2.655416E-03  2.655415E-03  2.655415E-03  2.655415E-03  2.655415E-03  2.655415E-03


SCALARS Total_Mg++           float 1
LOOKUP_TABLE default
 8.216757E-07  8.216757E-07  8.216757E-07  8.216757E-07  8.216757E-07  8.216757E-07  8.216757E-07  8.216757E-07  8.216757E-07  8.216757E-07
 8.216756E-07  8.216756E-07  8.216756E-07  8.216756E-07  8.216756E-07  8.216756E-07  8.216756E-07  8.216756E-07  8.216756E-07  8.216756E-07


SCALARS Total_Fe++           float 1
LOOKUP_TABLE default
 1.251593E-06  1.251593E-06  1.251593E-06  1.251593E-06  1.251593E-06  1.251593E-06  1.251593E-06  1.251593E-06  1.251593E-06  1.251593E-06
 1.251593E-06  1.251592E-06  1.251592E-06  1.251592E-06  1.251592E-06  1.251592E-06  1.251592E-06  1.251592E-06  1.251592E-06  1.251592E-06


SCALARS Total_Cu++           float 1
LOOKUP_TABLE default
 9.952832E-11  9.952832E-11  9.952832E-11  9.952832E-11  9.952832E-11  9.952832E-11  9.952832E-11  9.952832E-11  9.952832E-11  9.952832E-11
 9.952832E-11  9.952832E-11  9.952832E-11  9.952832E-11  9.952832E-11  9.952832E-11  9.952832E-11  9.952832E-11  9.952831E-11  9.952831E-11


SCALARS Total_SO4--          float 1
LOOKUP_TABLE default
 4.376188E-03  4.376188E-03  4.376188E-03  4.376188E-03  4.376188E-03  4.376188E-03  4.376188E-03  4.376188E-03  4.376188E-03  4.376188E-03
 4.376188E-03  4.376188E-03  4.376188E-03  4.376188E-03  4.376188E-03  4.376188E-03  4.376188E-03  4.376188E-03  4.376188E-03  4.376188E-03


SCALARS Total_Tracer         float 1
LOOKUP_TABLE default
 9.952832E-11  9.952832E-11  9.952832E-11  9.952832E-11  9.952832E-11  9.952832E-11  9.952832E-11  9.952832E-11  9.952832E-11  9.952832E-11
 9.952832E-11  9.952832E-11  9.952832E-11  9.952832E-11  9.952832E-11  9.952832E-11  9.952832E-11  9.952832E-11  9.952831E-11  9.952831E-11


SCALARS Active_Gas_CO2(g)    float 1
LOOKUP_TABLE default
 0.000000E+00  0.000000E+00  0.000000E+00  0.000000E+00  0.000000E+00  0.000000E+00  0.000000E+00  0.000000E+00  0.000000E+00  0.000000E+00
 0.000000E+00  0.000000E+00  0.000000E+00  0.000000E+00  0.000000E+00  0.000000E+00  0.000000E+00  0.000000E+00  0.000000E+00  0.000000E+00


SCALARS HCO3-                float 1
LOOKUP_TABLE default
 4.414746E-04  6.966617E-04  9.265866E-04  1.136452E-03  1.329583E-03  1.507995E-03  1.672913E-03  1.825103E-03  1.965081E-03  2.093250E-03
 2.209985E-03  2.315692E-03  2.410838E-03  2.495961E-03  2.571665E-03  2.638613E-03  2.697501E-03  2.749046E-03  2.793959E-03  2.832861E-03


SCALARS H2SiO4--             float 1
LOOKUP_TABLE default
 2.566087E-12  6.507153E-12  1.170248E-11  1.787120E-11  2.480293E-11  3.231609E-11  4.024107E-11  4.841444E-11  5.667885E-11  6.488597E-11
 7.290061E-11  8.060505E-11  8.790239E-11  9.471867E-11  1.010032E-10  1.067275E-10  1.118829E-10  1.164776E-10  1.205327E-10  1.240725E-10


SCALARS H3SiO4-              float 1
LOOKUP_TABLE default
 3.535136E-06  5.624096E-06  7.534603E-06  9.301322E-06  1.094588E-05  1.248039E-05  1.391114E-05  1.524113E-05  1.647161E-05  1.760323E-05
 1.863680E-05  1.957376E-05  2.041647E-05  2.116830E-05  2.183357E-05  2.241745E-05  2.292573E-05  2.336459E-05  2.374039E-05  2.405888E-05


SCALARS Calcite_VF           float 1
LOOKUP_TABLE default
 1.355856E-02  1.389151E-02  1.407742E-02  1.420637E-02  1.430694E-02  1.439101E-02  1.446430E-02  1.452981E-02  1.458914E-02  1.464321E-02
 1.469254E-02  1.473745E-02  1.477818E-02  1.481491E-02  1.484786E-02  1.487723E-02  1.490326E-02  1.492619E-02  1.494628E-02  1.496377E-02


SCALARS SiO2(am)_VF          float 1
LOOKUP_TABLE default
 1.909648E-04  2.147804E-04  2.313874E-04  2.440090E-04  2.539930E-04  2.620460E-04  2.685946E-04  2.739227E-04  2.782346E-04  2.816863E-04
 2.844023E-04  2.864859E-04  2.880246E-04  2.890940E-04  2.897599E-04  2.900799E-04  2.901047E-04  2.898785E-04  2.894401E-04  2.888253E-04


SCALARS Calcite_Rate         float 1
LOOKUP_TABLE default
-2.031872E-04 -1.776414E-04 -1.592520E-04 -1.452461E-04 -1.337440E-04 -1.236998E-04 -1.145188E-04 -1.058610E-04 -9.754083E-05 -8.947253E-05
-8.163528E-05 -7.404945E-05 -6.675839E-05 -5.981455E-05 -5.326908E-05 -4.716473E-05 -4.153174E-05 -3.638615E-05 -3.173022E-05 -2.756208E-05


SCALARS SiO2(am)_Rate        float 1
LOOKUP_TABLE default
 1.674510E-05  2.087932E-05  2.393903E-05  2.637549E-05  2.839237E-05  3.009828E-05  3.155768E-05  3.281198E-05  3.388959E-05  3.481131E-05
 3.559338E-05  3.624929E-05  3.679086E-05  3.722883E-05  3.757323E-05  3.783353E-05  3.801866E-05  3.813704E-05  3.819650E-05  3.820447E-05


SCALARS Calcite_Area         float 1
LOOKUP_TABLE default
 7.688394E+00  9.714219E+00  1.103059E+01  1.203161E+01  1.286608E+01  1.360166E+01  1.427198E+01  1.489420E+01  1.547675E+01  1.602326E+01
 1.653479E+01  1.701119E+01  1.745189E+01  1.785646E+01  1.822490E+01  1.855775E+01  1.885612E+01  1.912163E+01  1.935631E+01  1.956206E+01


SCALARS SiO2(am)_Area        float 1
LOOKUP_TABLE default
 1.752720E+05  1.687111E+05  1.646851E+05  1.618762E+05  1.597905E+05  1.581892E+05  1.569378E+05  1.559524E+05  1.551765E+05  1.545699E+05
 1.541026E+05  1.537511E+05  1.534970E+05  1.533248E+05  1.532222E+05  1.531784E+05  1.531845E+05  1.532328E+05  1.533169E+05  1.534308E+05


SCALARS Material_ID          int 1
LOOKUP_TABLE default
  1
  1
  1
  1
  1
  1
  1
  1
  1
  1
  1
  1
  1
  1
  1
  1
  1
  1
  1
  1


