# vtk DataFile Version 2.0
PFLOTRAN output
ASCII
DATASET UNSTRUCTURED_GRID
POINTS           84 float
 0.000000E+00  0.000000E+00  0.000000E+00
 7.580000E-03  0.000000E+00  0.000000E+00
 1.516000E-02  0.000000E+00  0.000000E+00
 2.274000E-02  0.000000E+00  0.000000E+00
 3.032000E-02  0.000000E+00  0.000000E+00
 3.790000E-02  0.000000E+00  0.000000E+00
 4.548000E-02  0.000000E+00  0.000000E+00
 5.306000E-02  0.000000E+00  0.000000E+00
 6.064000E-02  0.000000E+00  0.000000E+00
 6.822000E-02  0.000000E+00  0.000000E+00
 7.580000E-02  0.000000E+00  0.000000E+00
 8.338000E-02  0.000000E+00  0.000000E+00
 9.096000E-02  0.000000E+00  0.000000E+00
 9.854000E-02  0.000000E+00  0.000000E+00
 1.061200E-01  0.000000E+00  0.000000E+00
 1.137000E-01  0.000000E+00  0.000000E+00
 1.212800E-01  0.000000E+00  0.000000E+00
 1.288600E-01  0.000000E+00  0.000000E+00
 1.364400E-01  0.000000E+00  0.000000E+00
 1.440200E-01  0.000000E+00  0.000000E+00
 1.516000E-01  0.000000E+00  0.000000E+00
 0.000000E+00  1.125000E-02  0.000000E+00
 7.580000E-03  1.125000E-02  0.000000E+00
 1.516000E-02  1.125000E-02  0.000000E+00
 2.274000E-02  1.125000E-02  0.000000E+00
 3.032000E-02  1.125000E-02  0.000000E+00
 3.790000E-02  1.125000E-02  0.000000E+00
 4.548000E-02  1.125000E-02  0.000000E+00
 5.306000E-02  1.125000E-02  0.000000E+00
 6.064000E-02  1.125000E-02  0.000000E+00
 6.822000E-02  1.125000E-02  0.000000E+00
 7.580000E-02  1.125000E-02  0.000000E+00
 8.338000E-02  1.125000E-02  0.000000E+00
 9.096000E-02  1.125000E-02  0.000000E+00
 9.854000E-02  1.125000E-02  0.000000E+00
 1.061200E-01  1.125000E-02  0.000000E+00
 1.137000E-01  1.125000E-02  0.000000E+00
 1.212800E-01  1.125000E-02  0.000000E+00
 1.288600E-01  1.125000E-02  0.000000E+00
 1.364400E-01  1.125000E-02  0.000000E+00
 1.440200E-01  1.125000E-02  0.000000E+00
 1.516000E-01  1.125000E-02  0.000000E+00
 0.000000E+00  0.000000E+00  1.125000E-02
 7.580000E-03  0.000000E+00  1.125000E-02
 1.516000E-02  0.000000E+00  1.125000E-02
 2.274000E-02  0.000000E+00  1.125000E-02
 3.032000E-02  0.000000E+00  1.125000E-02
 3.790000E-02  0.000000E+00  1.125000E-02
 4.548000E-02  0.000000E+00  1.125000E-02
 5.306000E-02  0.000000E+00  1.125000E-02
 6.064000E-02  0.000000E+00  1.125000E-02
 6.822000E-02  0.000000E+00  1.125000E-02
 7.580000E-02  0.000000E+00  1.125000E-02
 8.338000E-02  0.000000E+00  1.125000E-02
 9.096000E-02  0.000000E+00  1.125000E-02
 9.854000E-02  0.000000E+00  1.125000E-02
 1.061200E-01  0.000000E+00  1.125000E-02
 1.137000E-01  0.000000E+00  1.125000E-02
 1.212800E-01  0.000000E+00  1.125000E-02
 1.288600E-01  0.000000E+00  1.125000E-02
 1.364400E-01  0.000000E+00  1.125000E-02
 1.440200E-01  0.000000E+00  1.125000E-02
 1.516000E-01  0.000000E+00  1.125000E-02
 0.000000E+00  1.125000E-02  1.125000E-02
 7.580000E-03  1.125000E-02  1.125000E-02
 1.516000E-02  1.125000E-02  1.125000E-02
 2.274000E-02  1.125000E-02  1.125000E-02
 3.032000E-02  1.125000E-02  1.125000E-02
 3.790000E-02  1.125000E-02  1.125000E-02
 4.548000E-02  1.125000E-02  1.125000E-02
 5.306000E-02  1.125000E-02  1.125000E-02
 6.064000E-02  1.125000E-02  1.125000E-02
 6.822000E-02  1.125000E-02  1.125000E-02
 7.580000E-02  1.125000E-02  1.125000E-02
 8.338000E-02  1.125000E-02  1.125000E-02
 9.096000E-02  1.125000E-02  1.125000E-02
 9.854000E-02  1.125000E-02  1.125000E-02
 1.061200E-01  1.125000E-02  1.125000E-02
 1.137000E-01  1.125000E-02  1.125000E-02
 1.212800E-01  1.125000E-02  1.125000E-02
 1.288600E-01  1.125000E-02  1.125000E-02
 1.364400E-01  1.125000E-02  1.125000E-02
 1.440200E-01  1.125000E-02  1.125000E-02
 1.516000E-01  1.125000E-02  1.125000E-02
CELLS           20          180
8        0        1       22       21       42       43       64       63
8        1        2       23       22       43       44       65       64
8        2        3       24       23       44       45       66       65
8        3        4       25       24       45       46       67       66
8        4        5       26       25       46       47       68       67
8        5        6       27       26       47       48       69       68
8        6        7       28       27       48       49       70       69
8        7        8       29       28       49       50       71       70
8        8        9       30       29       50       51       72       71
8        9       10       31       30       51       52       73       72
8       10       11       32       31       52       53       74       73
8       11       12       33       32       53       54       75       74
8       12       13       34       33       54       55       76       75
8       13       14       35       34       55       56       77       76
8       14       15       36       35       56       57       78       77
8       15       16       37       36       57       58       79       78
8       16       17       38       37       58       59       80       79
8       17       18       39       38       59       60       81       80
8       18       19       40       39       60       61       82       81
8       19       20       41       40       61       62       83       82

CELL_TYPES           20
12
12
12
12
12
12
12
12
12
12
12
12
12
12
12
12
12
12
12
12

CELL_DATA       20
SCALARS Porosity             float 1
LOOKUP_TABLE default
 9.883037E-01  9.878823E-01  9.875786E-01  9.873399E-01  9.871420E-01  9.869713E-01  9.868196E-01  9.866818E-01  9.865543E-01  9.864344E-01
 9.863204E-01  9.862110E-01  9.861052E-01  9.860022E-01  9.859015E-01  9.858027E-01  9.857055E-01  9.856099E-01  9.855159E-01  9.854235E-01


SCALARS Permeability_X       float 1
LOOKUP_TABLE default
 1.000000E-12  1.000000E-12  1.000000E-12  1.000000E-12  1.000000E-12  1.000000E-12  1.000000E-12  1.000000E-12  1.000000E-12  1.000000E-12
 1.000000E-12  1.000000E-12  1.000000E-12  1.000000E-12  1.000000E-12  1.000000E-12  1.000000E-12  1.000000E-12  1.000000E-12  1.000000E-12


SCALARS Liquid_Pressure      float 1
LOOKUP_TABLE default
 7.500296E+06  7.500281E+06  7.500266E+06  7.500250E+06  7.500235E+06  7.500220E+06  7.500205E+06  7.500190E+06  7.500175E+06  7.500159E+06
 7.500144E+06  7.500129E+06  7.500114E+06  7.500099E+06  7.500083E+06  7.500068E+06  7.500053E+06  7.500038E+06  7.500023E+06  7.500008E+06


SCALARS Temperature          float 1
LOOKUP_TABLE default
 1.500000E+02  1.499999E+02  1.499999E+02  1.499999E+02  1.499999E+02  1.499998E+02  1.499998E+02  1.499998E+02  1.499997E+02  1.499997E+02
 1.499997E+02  1.499997E+02  1.499997E+02  1.499997E+02  1.499997E+02  1.499997E+02  1.499997E+02  1.499998E+02  1.499998E+02  1.499999E+02


SCALARS pH                   float 1
LOOKUP_TABLE default
 4.878594E+00  5.006863E+00  5.110457E+00  5.195981E+00  5.268354E+00  5.330940E+00  5.386051E+00  5.435309E+00  5.479881E+00  5.520628E+00
 5.558196E+00  5.593080E+00  5.625663E+00  5.656243E+00  5.685053E+00  5.712278E+00  5.738061E+00  5.762511E+00  5.785714E+00  5.807674E+00


SCALARS Total_H+             float 1
LOOKUP_TABLE default
-4.030017E-04 -4.880607E-04 -5.754822E-04 -6.637925E-04 -7.524113E-04 -8.411300E-04 -9.299057E-04 -1.018770E-03 -1.107784E-03 -1.197015E-03
-1.286525E-03 -1.376359E-03 -1.466538E-03 -1.557058E-03 -1.647880E-03 -1.738930E-03 -1.830092E-03 -1.921203E-03 -2.012054E-03 -2.102157E-03


SCALARS Total_SiO2(aq)       float 1
LOOKUP_TABLE default
 1.405265E-02  1.404506E-02  1.403669E-02  1.402757E-02  1.401778E-02  1.400736E-02  1.399635E-02  1.398478E-02  1.397268E-02  1.396007E-02
 1.394698E-02  1.393342E-02  1.391942E-02  1.390498E-02  1.389012E-02  1.387484E-02  1.385918E-02  1.384312E-02  1.382670E-02  1.380996E-02


SCALARS Total_Al+++          float 1
LOOKUP_TABLE default
 6.015348E-05  6.015348E-05  6.015348E-05  6.015348E-05  6.015348E-05  6.015348E-05  6.015348E-05  6.015348E-05  6.015349E-05  6.015349E-05
 6.015349E-05  6.015349E-05  6.015349E-05  6.015349E-05  6.015349E-05  6.015349E-05  6.015349E-05  6.015349E-05  6.015349E-05  6.015349E-05


SCALARS Total_Ca++           float 1
LOOKUP_TABLE default
 1.089679E-04  1.514974E-04  1.952082E-04  2.393633E-04  2.836727E-04  3.280321E-04  3.724199E-04  4.168520E-04  4.613589E-04  5.059748E-04
 5.507298E-04  5.956465E-04  6.407361E-04  6.859960E-04  7.314072E-04  7.769323E-04  8.225131E-04  8.680687E-04  9.134942E-04  9.585455E-04


SCALARS Total_Cl-            float 1
LOOKUP_TABLE default
 2.513233E-02  2.513233E-02  2.513233E-02  2.513233E-02  2.513233E-02  2.513233E-02  2.513233E-02  2.513233E-02  2.513233E-02  2.513233E-02
 2.513233E-02  2.513233E-02  2.513233E-02  2.513233E-02  2.513233E-02  2.513233E-02  2.513233E-02  2.513233E-02  2.513233E-02  2.513233E-02


SCALARS Total_CO2(aq)        float 1
LOOKUP_TABLE default
 1.360567E-02  1.364820E-02  1.369191E-02  1.373606E-02  1.378037E-02  1.382473E-02  1.386912E-02  1.391355E-02  1.395806E-02  1.400267E-02
 1.404743E-02  1.409235E-02  1.413744E-02  1.418270E-02  1.422811E-02  1.427363E-02  1.431921E-02  1.436477E-02  1.441019E-02  1.445524E-02


SCALARS Total_Na+            float 1
LOOKUP_TABLE default
 3.122900E-02  3.122900E-02  3.122900E-02  3.122900E-02  3.122900E-02  3.122900E-02  3.122900E-02  3.122900E-02  3.122900E-02  3.122900E-02
 3.122900E-02  3.122900E-02  3.122900E-02  3.122900E-02  3.122900E-02  3.122900E-02  3.122900E-02  3.122900E-02  3.122900E-02  3.122900E-02


SCALARS Total_K+             float 1
LOOKUP_TABLE default
 2.655416E-03  2.655416E-03  2.655416E-03  2.655416E-03  2.655416E-03  2.655416E-03  2.655416E-03  2.655416E-03  2.655416E-03  2.655416E-03
 2.655416E-03  2.655416E-03  2.655416E-03  2.655416E-03  2.655416E-03  2.655416E-03  2.655416E-03  2.655415E-03  2.655415E-03  2.655415E-03


SCALARS Total_Mg++           float 1
LOOKUP_TABLE default
 8.216757E-07  8.216757E-07  8.216757E-07  8.216757E-07  8.216757E-07  8.216757E-07  8.216757E-07  8.216757E-07  8.216757E-07  8.216757E-07
 8.216757E-07  8.216757E-07  8.216757E-07  8.216756E-07  8.216756E-07  8.216756E-07  8.216756E-07  8.216756E-07  8.216756E-07  8.216756E-07


SCALARS Total_Fe++           float 1
LOOKUP_TABLE default
 1.251593E-06  1.251593E-06  1.251593E-06  1.251593E-06  1.251593E-06  1.251593E-06  1.251593E-06  1.251593E-06  1.251593E-06  1.251593E-06
 1.251593E-06  1.251593E-06  1.251593E-06  1.251593E-06  1.251592E-06  1.251592E-06  1.251592E-06  1.251592E-06  1.251592E-06  1.251592E-06


SCALARS Total_Cu++           float 1
LOOKUP_TABLE default
 9.952832E-11  9.952832E-11  9.952832E-11  9.952832E-11  9.952832E-11  9.952832E-11  9.952832E-11  9.952832E-11  9.952832E-11  9.952832E-11
 9.952832E-11  9.952832E-11  9.952832E-11  9.952832E-11  9.952832E-11  9.952832E-11  9.952832E-11  9.952832E-11  9.952831E-11  9.952831E-11


SCALARS Total_SO4--          float 1
LOOKUP_TABLE default
 4.376188E-03  4.376188E-03  4.376188E-03  4.376188E-03  4.376188E-03  4.376188E-03  4.376188E-03  4.376188E-03  4.376188E-03  4.376188E-03
 4.376188E-03  4.376188E-03  4.376188E-03  4.376188E-03  4.376188E-03  4.376188E-03  4.376188E-03  4.376188E-03  4.376188E-03  4.376188E-03


SCALARS Total_Tracer         float 1
LOOKUP_TABLE default
 9.952832E-11  9.952832E-11  9.952832E-11  9.952832E-11  9.952832E-11  9.952832E-11  9.952832E-11  9.952832E-11  9.952832E-11  9.952832E-11
 9.952832E-11  9.952832E-11  9.952832E-11  9.952832E-11  9.952832E-11  9.952832E-11  9.952832E-11  9.952832E-11  9.952831E-11  9.952831E-11


SCALARS Active_Gas_CO2(g)    float 1
LOOKUP_TABLE default
 0.000000E+00  0.000000E+00  0.000000E+00  0.000000E+00  0.000000E+00  0.000000E+00  0.000000E+00  0.000000E+00  0.000000E+00  0.000000E+00
 0.000000E+00  0.000000E+00  0.000000E+00  0.000000E+00  0.000000E+00  0.000000E+00  0.000000E+00  0.000000E+00  0.000000E+00  0.000000E+00


SCALARS HCO3-                float 1
LOOKUP_TABLE default
 2.301896E-04  3.084714E-04  3.904643E-04  4.740581E-04  5.583468E-04  6.429444E-04  7.277031E-04  8.125870E-04  8.976115E-04  9.828112E-04
 1.068222E-03  1.153868E-03  1.239758E-03  1.325875E-03  1.412172E-03  1.498571E-03  1.584953E-03  1.671159E-03  1.756988E-03  1.841976E-03


SCALARS H2SiO4--             float 1
LOOKUP_TABLE default
 6.873127E-13  1.240480E-12  1.998302E-12  2.961919E-12  4.132029E-12  5.510161E-12  7.099008E-12  8.902426E-12  1.092528E-11  1.317322E-11
 1.565239E-11  1.836911E-11  2.132943E-11  2.453870E-11  2.800101E-11  3.171852E-11  3.569074E-11  3.991374E-11  4.437927E-11  4.906180E-11


SCALARS H3SiO4-              float 1
LOOKUP_TABLE default
 1.830526E-06  2.458258E-06  3.118756E-06  3.795268E-06  4.480548E-06  5.171475E-06  5.866838E-06  6.566336E-06  7.270094E-06  7.978401E-06
 8.691569E-06  9.409828E-06  1.013326E-05  1.086175E-05  1.159493E-05  1.233212E-05  1.307230E-05  1.381408E-05  1.455563E-05  1.529284E-05


SCALARS Calcite_VF           float 1
LOOKUP_TABLE default
 1.127978E-02  1.163758E-02  1.189244E-02  1.209107E-02  1.225508E-02  1.239636E-02  1.252208E-02  1.263688E-02  1.274387E-02  1.284525E-02
 1.294257E-02  1.303698E-02  1.312932E-02  1.322019E-02  1.331005E-02  1.339919E-02  1.348779E-02  1.357593E-02  1.366361E-02  1.375052E-02


SCALARS SiO2(am)_VF          float 1
LOOKUP_TABLE default
 3.984350E-04  4.606905E-04  5.093238E-04  5.494423E-04  5.835982E-04  6.132715E-04  6.394028E-04  6.626290E-04  6.834029E-04  7.020582E-04
 7.188488E-04  7.339725E-04  7.475869E-04  7.598201E-04  7.707785E-04  7.805513E-04  7.892154E-04  7.968379E-04  8.034786E-04  8.091803E-04


SCALARS Calcite_Rate         float 1
LOOKUP_TABLE default
-5.239783E-05 -5.654226E-05 -5.807035E-05 -5.861762E-05 -5.877972E-05 -5.880428E-05 -5.880150E-05 -5.882081E-05 -5.888207E-05 -5.898961E-05
-5.913871E-05 -5.931887E-05 -5.951535E-05 -5.970989E-05 -5.988110E-05 -6.000463E-05 -6.005332E-05 -5.999752E-05 -5.980563E-05 -5.944680E-05


SCALARS SiO2(am)_Rate        float 1
LOOKUP_TABLE default
 8.979650E-06  1.009091E-05  1.114387E-05  1.211632E-05  1.301418E-05  1.384810E-05  1.462824E-05  1.536316E-05  1.605985E-05  1.672390E-05
 1.735981E-05  1.797110E-05  1.856057E-05  1.913032E-05  1.968189E-05  2.021633E-05  2.073422E-05  2.123570E-05  2.172056E-05  2.218703E-05


SCALARS Calcite_Area         float 1
LOOKUP_TABLE default
 1.171826E+00  1.602690E+00  1.990571E+00  2.348834E+00  2.687060E+00  3.012771E+00  3.332024E+00  3.649810E+00  3.970335E+00  4.297234E+00
 4.633713E+00  4.982648E+00  5.346651E+00  5.728096E+00  6.129131E+00  6.551656E+00  6.997282E+00  7.467268E+00  7.962437E+00  8.481838E+00


SCALARS SiO2(am)_Area        float 1
LOOKUP_TABLE default
 1.362193E+05  1.297754E+05  1.255056E+05  1.223757E+05  1.199432E+05  1.179801E+05  1.163542E+05  1.149822E+05  1.138089E+05  1.127956E+05
 1.119143E+05  1.111442E+05  1.104694E+05  1.098774E+05  1.093583E+05  1.089041E+05  1.085084E+05  1.081656E+05  1.078711E+05  1.076215E+05


SCALARS Material_ID          int 1
LOOKUP_TABLE default
  1
  1
  1
  1
  1
  1
  1
  1
  1
  1
  1
  1
  1
  1
  1
  1
  1
  1
  1
  1


