# vtk DataFile Version 2.0
PFLOTRAN output
ASCII
DATASET UNSTRUCTURED_GRID
POINTS           84 float
 0.000000E+00  0.000000E+00  0.000000E+00
 7.580000E-03  0.000000E+00  0.000000E+00
 1.516000E-02  0.000000E+00  0.000000E+00
 2.274000E-02  0.000000E+00  0.000000E+00
 3.032000E-02  0.000000E+00  0.000000E+00
 3.790000E-02  0.000000E+00  0.000000E+00
 4.548000E-02  0.000000E+00  0.000000E+00
 5.306000E-02  0.000000E+00  0.000000E+00
 6.064000E-02  0.000000E+00  0.000000E+00
 6.822000E-02  0.000000E+00  0.000000E+00
 7.580000E-02  0.000000E+00  0.000000E+00
 8.338000E-02  0.000000E+00  0.000000E+00
 9.096000E-02  0.000000E+00  0.000000E+00
 9.854000E-02  0.000000E+00  0.000000E+00
 1.061200E-01  0.000000E+00  0.000000E+00
 1.137000E-01  0.000000E+00  0.000000E+00
 1.212800E-01  0.000000E+00  0.000000E+00
 1.288600E-01  0.000000E+00  0.000000E+00
 1.364400E-01  0.000000E+00  0.000000E+00
 1.440200E-01  0.000000E+00  0.000000E+00
 1.516000E-01  0.000000E+00  0.000000E+00
 0.000000E+00  1.125000E-02  0.000000E+00
 7.580000E-03  1.125000E-02  0.000000E+00
 1.516000E-02  1.125000E-02  0.000000E+00
 2.274000E-02  1.125000E-02  0.000000E+00
 3.032000E-02  1.125000E-02  0.000000E+00
 3.790000E-02  1.125000E-02  0.000000E+00
 4.548000E-02  1.125000E-02  0.000000E+00
 5.306000E-02  1.125000E-02  0.000000E+00
 6.064000E-02  1.125000E-02  0.000000E+00
 6.822000E-02  1.125000E-02  0.000000E+00
 7.580000E-02  1.125000E-02  0.000000E+00
 8.338000E-02  1.125000E-02  0.000000E+00
 9.096000E-02  1.125000E-02  0.000000E+00
 9.854000E-02  1.125000E-02  0.000000E+00
 1.061200E-01  1.125000E-02  0.000000E+00
 1.137000E-01  1.125000E-02  0.000000E+00
 1.212800E-01  1.125000E-02  0.000000E+00
 1.288600E-01  1.125000E-02  0.000000E+00
 1.364400E-01  1.125000E-02  0.000000E+00
 1.440200E-01  1.125000E-02  0.000000E+00
 1.516000E-01  1.125000E-02  0.000000E+00
 0.000000E+00  0.000000E+00  1.125000E-02
 7.580000E-03  0.000000E+00  1.125000E-02
 1.516000E-02  0.000000E+00  1.125000E-02
 2.274000E-02  0.000000E+00  1.125000E-02
 3.032000E-02  0.000000E+00  1.125000E-02
 3.790000E-02  0.000000E+00  1.125000E-02
 4.548000E-02  0.000000E+00  1.125000E-02
 5.306000E-02  0.000000E+00  1.125000E-02
 6.064000E-02  0.000000E+00  1.125000E-02
 6.822000E-02  0.000000E+00  1.125000E-02
 7.580000E-02  0.000000E+00  1.125000E-02
 8.338000E-02  0.000000E+00  1.125000E-02
 9.096000E-02  0.000000E+00  1.125000E-02
 9.854000E-02  0.000000E+00  1.125000E-02
 1.061200E-01  0.000000E+00  1.125000E-02
 1.137000E-01  0.000000E+00  1.125000E-02
 1.212800E-01  0.000000E+00  1.125000E-02
 1.288600E-01  0.000000E+00  1.125000E-02
 1.364400E-01  0.000000E+00  1.125000E-02
 1.440200E-01  0.000000E+00  1.125000E-02
 1.516000E-01  0.000000E+00  1.125000E-02
 0.000000E+00  1.125000E-02  1.125000E-02
 7.580000E-03  1.125000E-02  1.125000E-02
 1.516000E-02  1.125000E-02  1.125000E-02
 2.274000E-02  1.125000E-02  1.125000E-02
 3.032000E-02  1.125000E-02  1.125000E-02
 3.790000E-02  1.125000E-02  1.125000E-02
 4.548000E-02  1.125000E-02  1.125000E-02
 5.306000E-02  1.125000E-02  1.125000E-02
 6.064000E-02  1.125000E-02  1.125000E-02
 6.822000E-02  1.125000E-02  1.125000E-02
 7.580000E-02  1.125000E-02  1.125000E-02
 8.338000E-02  1.125000E-02  1.125000E-02
 9.096000E-02  1.125000E-02  1.125000E-02
 9.854000E-02  1.125000E-02  1.125000E-02
 1.061200E-01  1.125000E-02  1.125000E-02
 1.137000E-01  1.125000E-02  1.125000E-02
 1.212800E-01  1.125000E-02  1.125000E-02
 1.288600E-01  1.125000E-02  1.125000E-02
 1.364400E-01  1.125000E-02  1.125000E-02
 1.440200E-01  1.125000E-02  1.125000E-02
 1.516000E-01  1.125000E-02  1.125000E-02
CELLS           20          180
8        0        1       22       21       42       43       64       63
8        1        2       23       22       43       44       65       64
8        2        3       24       23       44       45       66       65
8        3        4       25       24       45       46       67       66
8        4        5       26       25       46       47       68       67
8        5        6       27       26       47       48       69       68
8        6        7       28       27       48       49       70       69
8        7        8       29       28       49       50       71       70
8        8        9       30       29       50       51       72       71
8        9       10       31       30       51       52       73       72
8       10       11       32       31       52       53       74       73
8       11       12       33       32       53       54       75       74
8       12       13       34       33       54       55       76       75
8       13       14       35       34       55       56       77       76
8       14       15       36       35       56       57       78       77
8       15       16       37       36       57       58       79       78
8       16       17       38       37       58       59       80       79
8       17       18       39       38       59       60       81       80
8       18       19       40       39       60       61       82       81
8       19       20       41       40       61       62       83       82

CELL_TYPES           20
12
12
12
12
12
12
12
12
12
12
12
12
12
12
12
12
12
12
12
12

CELL_DATA       20
SCALARS Porosity             float 1
LOOKUP_TABLE default
 9.854296E-01  9.852376E-01  9.851395E-01  9.850742E-01  9.850250E-01  9.849853E-01  9.849521E-01  9.849238E-01  9.848995E-01  9.848785E-01
 9.848604E-01  9.848448E-01  9.848315E-01  9.848200E-01  9.848103E-01  9.848021E-01  9.847952E-01  9.847895E-01  9.847846E-01  9.847807E-01


SCALARS Permeability_X       float 1
LOOKUP_TABLE default
 1.000000E-12  1.000000E-12  1.000000E-12  1.000000E-12  1.000000E-12  1.000000E-12  1.000000E-12  1.000000E-12  1.000000E-12  1.000000E-12
 1.000000E-12  1.000000E-12  1.000000E-12  1.000000E-12  1.000000E-12  1.000000E-12  1.000000E-12  1.000000E-12  1.000000E-12  1.000000E-12


SCALARS Liquid_Pressure      float 1
LOOKUP_TABLE default
 7.500296E+06  7.500281E+06  7.500266E+06  7.500250E+06  7.500235E+06  7.500220E+06  7.500205E+06  7.500190E+06  7.500175E+06  7.500159E+06
 7.500144E+06  7.500129E+06  7.500114E+06  7.500099E+06  7.500083E+06  7.500068E+06  7.500053E+06  7.500038E+06  7.500023E+06  7.500008E+06


SCALARS Temperature          float 1
LOOKUP_TABLE default
 1.499999E+02  1.499998E+02  1.499998E+02  1.499997E+02  1.499997E+02  1.499996E+02  1.499996E+02  1.499996E+02  1.499996E+02  1.499996E+02
 1.499996E+02  1.499996E+02  1.499996E+02  1.499996E+02  1.499997E+02  1.499997E+02  1.499997E+02  1.499998E+02  1.499999E+02  1.499999E+02


SCALARS pH                   float 1
LOOKUP_TABLE default
 5.276061E+00  5.479296E+00  5.600509E+00  5.685206E+00  5.749086E+00  5.799383E+00  5.840036E+00  5.873448E+00  5.901205E+00  5.924427E+00
 5.943945E+00  5.960397E+00  5.974291E+00  5.986036E+00  5.995970E+00  6.004375E+00  6.011487E+00  6.017504E+00  6.022595E+00  6.026892E+00


SCALARS Total_H+             float 1
LOOKUP_TABLE default
-7.627160E-04 -1.106611E-03 -1.396458E-03 -1.648503E-03 -1.870760E-03 -2.067848E-03 -2.242804E-03 -2.397885E-03 -2.534946E-03 -2.655635E-03
-2.761480E-03 -2.853930E-03 -2.934362E-03 -3.004077E-03 -3.064297E-03 -3.116153E-03 -3.160684E-03 -3.198829E-03 -3.231434E-03 -3.259198E-03


SCALARS Total_SiO2(aq)       float 1
LOOKUP_TABLE default
 1.404333E-02  1.402294E-02  1.399953E-02  1.397381E-02  1.394624E-02  1.391718E-02  1.388689E-02  1.385559E-02  1.382347E-02  1.379070E-02
 1.375740E-02  1.372369E-02  1.368968E-02  1.365546E-02  1.362109E-02  1.358666E-02  1.355220E-02  1.351778E-02  1.348344E-02  1.344929E-02


SCALARS Total_Al+++          float 1
LOOKUP_TABLE default
 6.015348E-05  6.015348E-05  6.015348E-05  6.015347E-05  6.015347E-05  6.015346E-05  6.015344E-05  6.015343E-05  6.015341E-05  6.015338E-05
 6.015336E-05  6.015333E-05  6.015329E-05  6.015325E-05  6.015321E-05  6.015316E-05  6.015310E-05  6.015304E-05  6.015297E-05  6.015288E-05


SCALARS Total_Ca++           float 1
LOOKUP_TABLE default
 2.888251E-04  4.607725E-04  6.056961E-04  7.317187E-04  8.428470E-04  9.413908E-04  1.028869E-03  1.106409E-03  1.174940E-03  1.235284E-03
 1.288207E-03  1.334432E-03  1.374647E-03  1.409505E-03  1.439615E-03  1.465543E-03  1.487808E-03  1.506881E-03  1.523183E-03  1.537065E-03


SCALARS Total_Cl-            float 1
LOOKUP_TABLE default
 2.513233E-02  2.513233E-02  2.513233E-02  2.513233E-02  2.513233E-02  2.513233E-02  2.513233E-02  2.513233E-02  2.513233E-02  2.513233E-02
 2.513233E-02  2.513233E-02  2.513234E-02  2.513234E-02  2.513234E-02  2.513234E-02  2.513235E-02  2.513235E-02  2.513236E-02  2.513237E-02


SCALARS Total_CO2(aq)        float 1
LOOKUP_TABLE default
 1.378553E-02  1.395747E-02  1.410240E-02  1.422842E-02  1.433955E-02  1.443809E-02  1.452557E-02  1.460311E-02  1.467164E-02  1.473198E-02
 1.478491E-02  1.483113E-02  1.487135E-02  1.490621E-02  1.493632E-02  1.496225E-02  1.498452E-02  1.500359E-02  1.501990E-02  1.503379E-02


SCALARS Total_Na+            float 1
LOOKUP_TABLE default
 3.122900E-02  3.122900E-02  3.122900E-02  3.122900E-02  3.122900E-02  3.122900E-02  3.122900E-02  3.122900E-02  3.122900E-02  3.122900E-02
 3.122900E-02  3.122900E-02  3.122900E-02  3.122900E-02  3.122901E-02  3.122901E-02  3.122902E-02  3.122902E-02  3.122904E-02  3.122905E-02


SCALARS Total_K+             float 1
LOOKUP_TABLE default
 2.655416E-03  2.655416E-03  2.655416E-03  2.655416E-03  2.655416E-03  2.655416E-03  2.655416E-03  2.655416E-03  2.655416E-03  2.655416E-03
 2.655416E-03  2.655416E-03  2.655416E-03  2.655416E-03  2.655416E-03  2.655416E-03  2.655417E-03  2.655418E-03  2.655418E-03  2.655420E-03


SCALARS Total_Mg++           float 1
LOOKUP_TABLE default
 8.216757E-07  8.216757E-07  8.216757E-07  8.216757E-07  8.216757E-07  8.216757E-07  8.216757E-07  8.216757E-07  8.216757E-07  8.216757E-07
 8.216757E-07  8.216757E-07  8.216757E-07  8.216757E-07  8.216758E-07  8.216759E-07  8.216761E-07  8.216763E-07  8.216765E-07  8.216769E-07


SCALARS Total_Fe++           float 1
LOOKUP_TABLE default
 1.251593E-06  1.251593E-06  1.251593E-06  1.251593E-06  1.251593E-06  1.251593E-06  1.251593E-06  1.251593E-06  1.251593E-06  1.251593E-06
 1.251593E-06  1.251593E-06  1.251593E-06  1.251593E-06  1.251593E-06  1.251593E-06  1.251593E-06  1.251593E-06  1.251594E-06  1.251594E-06


SCALARS Total_Cu++           float 1
LOOKUP_TABLE default
 9.952832E-11  9.952832E-11  9.952832E-11  9.952832E-11  9.952832E-11  9.952832E-11  9.952832E-11  9.952832E-11  9.952832E-11  9.952832E-11
 9.952832E-11  9.952832E-11  9.952833E-11  9.952833E-11  9.952834E-11  9.952835E-11  9.952837E-11  9.952839E-11  9.952843E-11  9.952847E-11


SCALARS Total_SO4--          float 1
LOOKUP_TABLE default
 4.376189E-03  4.376188E-03  4.376188E-03  4.376188E-03  4.376188E-03  4.376188E-03  4.376188E-03  4.376188E-03  4.376188E-03  4.376188E-03
 4.376188E-03  4.376188E-03  4.376188E-03  4.376189E-03  4.376189E-03  4.376189E-03  4.376190E-03  4.376191E-03  4.376193E-03  4.376195E-03


SCALARS Total_Tracer         float 1
LOOKUP_TABLE default
 9.952832E-11  9.952832E-11  9.952832E-11  9.952832E-11  9.952832E-11  9.952831E-11  9.952829E-11  9.952826E-11  9.952818E-11  9.952803E-11
 9.952777E-11  9.952731E-11  9.952657E-11  9.952539E-11  9.952359E-11  9.952092E-11  9.951709E-11  9.951171E-11  9.950434E-11  9.949446E-11


SCALARS Active_Gas_CO2(g)    float 1
LOOKUP_TABLE default
 0.000000E+00  0.000000E+00  0.000000E+00  0.000000E+00  0.000000E+00  0.000000E+00  0.000000E+00  0.000000E+00  0.000000E+00  0.000000E+00
 0.000000E+00  0.000000E+00  0.000000E+00  0.000000E+00  0.000000E+00  0.000000E+00  0.000000E+00  0.000000E+00  0.000000E+00  0.000000E+00


SCALARS HCO3-                float 1
LOOKUP_TABLE default
 5.681563E-04  8.964664E-04  1.172974E-03  1.412697E-03  1.623360E-03  1.809526E-03  1.974246E-03  2.119810E-03  2.248103E-03  2.360788E-03
 2.459396E-03  2.545356E-03  2.620014E-03  2.684632E-03  2.740380E-03  2.788337E-03  2.829486E-03  2.864713E-03  2.894809E-03  2.920429E-03


SCALARS H2SiO4--             float 1
LOOKUP_TABLE default
 4.289662E-12  1.093636E-11  1.910283E-11  2.819391E-11  3.779773E-11  4.759015E-11  5.730624E-11  6.673158E-11  7.569911E-11  8.408675E-11
 9.181388E-11  9.883653E-11  1.051415E-10  1.107400E-10  1.156617E-10  1.199487E-10  1.236511E-10  1.268229E-10  1.295188E-10  1.317884E-10


SCALARS H3SiO4-              float 1
LOOKUP_TABLE default
 4.569206E-06  7.286634E-06  9.618008E-06  1.166933E-05  1.349344E-05  1.512034E-05  1.656958E-05  1.785584E-05  1.899163E-05  1.998860E-05
 2.085811E-05  2.161142E-05  2.225961E-05  2.281347E-05  2.328334E-05  2.367898E-05  2.400946E-05  2.428307E-05  2.450735E-05  2.468873E-05


SCALARS Calcite_VF           float 1
LOOKUP_TABLE default
 1.431608E-02  1.452349E-02  1.462920E-02  1.469954E-02  1.475286E-02  1.479626E-02  1.483298E-02  1.486471E-02  1.489241E-02  1.491668E-02
 1.493794E-02  1.495653E-02  1.497274E-02  1.498680E-02  1.499896E-02  1.500944E-02  1.501843E-02  1.502612E-02  1.503268E-02  1.503825E-02


SCALARS SiO2(am)_VF          float 1
LOOKUP_TABLE default
 1.446059E-04  1.565899E-04  1.646775E-04  1.706502E-04  1.752342E-04  1.788104E-04  1.816113E-04  1.837946E-04  1.854755E-04  1.867426E-04
 1.876666E-04  1.883055E-04  1.887075E-04  1.889128E-04  1.889554E-04  1.888641E-04  1.886631E-04  1.883728E-04  1.880106E-04  1.875921E-04


SCALARS Calcite_Rate         float 1
LOOKUP_TABLE default
-2.917975E-04 -2.276269E-04 -1.913332E-04 -1.659991E-04 -1.460963E-04 -1.293389E-04 -1.146552E-04 -1.015097E-04 -8.962530E-05 -7.885309E-05
-6.910627E-05 -6.032465E-05 -5.245623E-05 -4.544845E-05 -3.924486E-05 -3.378497E-05 -2.900540E-05 -2.484179E-05 -2.123059E-05 -1.811644E-05


SCALARS SiO2(am)_Rate        float 1
LOOKUP_TABLE default
 2.136111E-05  2.702148E-05  3.095807E-05  3.394676E-05  3.630743E-05  3.820613E-05  3.974244E-05  4.098282E-05  4.197536E-05  4.275723E-05
 4.335852E-05  4.380446E-05  4.411660E-05  4.431365E-05  4.441190E-05  4.442559E-05  4.436711E-05  4.424728E-05  4.407548E-05  4.386052E-05


SCALARS Calcite_Area         float 1
LOOKUP_TABLE default
 1.352771E+01  1.533172E+01  1.631627E+01  1.699699E+01  1.752668E+01  1.796595E+01  1.834293E+01  1.867211E+01  1.896173E+01  1.921695E+01
 1.944152E+01  1.963842E+01  1.981033E+01  1.995973E+01  2.008896E+01  2.020026E+01  2.029572E+01  2.037731E+01  2.044680E+01  2.050570E+01


SCALARS SiO2(am)_Area        float 1
LOOKUP_TABLE default
 1.935506E+05  1.889968E+05  1.861683E+05  1.841943E+05  1.827423E+05  1.816472E+05  1.808130E+05  1.801781E+05  1.796993E+05  1.793454E+05
 1.790924E+05  1.789215E+05  1.788177E+05  1.787688E+05  1.787648E+05  1.787973E+05  1.788596E+05  1.789459E+05  1.790515E+05  1.791719E+05


SCALARS Material_ID          int 1
LOOKUP_TABLE default
  1
  1
  1
  1
  1
  1
  1
  1
  1
  1
  1
  1
  1
  1
  1
  1
  1
  1
  1
  1


