# vtk DataFile Version 2.0
PFLOTRAN output
ASCII
DATASET UNSTRUCTURED_GRID
POINTS           84 float
 0.000000E+00  0.000000E+00  0.000000E+00
 7.580000E-03  0.000000E+00  0.000000E+00
 1.516000E-02  0.000000E+00  0.000000E+00
 2.274000E-02  0.000000E+00  0.000000E+00
 3.032000E-02  0.000000E+00  0.000000E+00
 3.790000E-02  0.000000E+00  0.000000E+00
 4.548000E-02  0.000000E+00  0.000000E+00
 5.306000E-02  0.000000E+00  0.000000E+00
 6.064000E-02  0.000000E+00  0.000000E+00
 6.822000E-02  0.000000E+00  0.000000E+00
 7.580000E-02  0.000000E+00  0.000000E+00
 8.338000E-02  0.000000E+00  0.000000E+00
 9.096000E-02  0.000000E+00  0.000000E+00
 9.854000E-02  0.000000E+00  0.000000E+00
 1.061200E-01  0.000000E+00  0.000000E+00
 1.137000E-01  0.000000E+00  0.000000E+00
 1.212800E-01  0.000000E+00  0.000000E+00
 1.288600E-01  0.000000E+00  0.000000E+00
 1.364400E-01  0.000000E+00  0.000000E+00
 1.440200E-01  0.000000E+00  0.000000E+00
 1.516000E-01  0.000000E+00  0.000000E+00
 0.000000E+00  1.125000E-02  0.000000E+00
 7.580000E-03  1.125000E-02  0.000000E+00
 1.516000E-02  1.125000E-02  0.000000E+00
 2.274000E-02  1.125000E-02  0.000000E+00
 3.032000E-02  1.125000E-02  0.000000E+00
 3.790000E-02  1.125000E-02  0.000000E+00
 4.548000E-02  1.125000E-02  0.000000E+00
 5.306000E-02  1.125000E-02  0.000000E+00
 6.064000E-02  1.125000E-02  0.000000E+00
 6.822000E-02  1.125000E-02  0.000000E+00
 7.580000E-02  1.125000E-02  0.000000E+00
 8.338000E-02  1.125000E-02  0.000000E+00
 9.096000E-02  1.125000E-02  0.000000E+00
 9.854000E-02  1.125000E-02  0.000000E+00
 1.061200E-01  1.125000E-02  0.000000E+00
 1.137000E-01  1.125000E-02  0.000000E+00
 1.212800E-01  1.125000E-02  0.000000E+00
 1.288600E-01  1.125000E-02  0.000000E+00
 1.364400E-01  1.125000E-02  0.000000E+00
 1.440200E-01  1.125000E-02  0.000000E+00
 1.516000E-01  1.125000E-02  0.000000E+00
 0.000000E+00  0.000000E+00  1.125000E-02
 7.580000E-03  0.000000E+00  1.125000E-02
 1.516000E-02  0.000000E+00  1.125000E-02
 2.274000E-02  0.000000E+00  1.125000E-02
 3.032000E-02  0.000000E+00  1.125000E-02
 3.790000E-02  0.000000E+00  1.125000E-02
 4.548000E-02  0.000000E+00  1.125000E-02
 5.306000E-02  0.000000E+00  1.125000E-02
 6.064000E-02  0.000000E+00  1.125000E-02
 6.822000E-02  0.000000E+00  1.125000E-02
 7.580000E-02  0.000000E+00  1.125000E-02
 8.338000E-02  0.000000E+00  1.125000E-02
 9.096000E-02  0.000000E+00  1.125000E-02
 9.854000E-02  0.000000E+00  1.125000E-02
 1.061200E-01  0.000000E+00  1.125000E-02
 1.137000E-01  0.000000E+00  1.125000E-02
 1.212800E-01  0.000000E+00  1.125000E-02
 1.288600E-01  0.000000E+00  1.125000E-02
 1.364400E-01  0.000000E+00  1.125000E-02
 1.440200E-01  0.000000E+00  1.125000E-02
 1.516000E-01  0.000000E+00  1.125000E-02
 0.000000E+00  1.125000E-02  1.125000E-02
 7.580000E-03  1.125000E-02  1.125000E-02
 1.516000E-02  1.125000E-02  1.125000E-02
 2.274000E-02  1.125000E-02  1.125000E-02
 3.032000E-02  1.125000E-02  1.125000E-02
 3.790000E-02  1.125000E-02  1.125000E-02
 4.548000E-02  1.125000E-02  1.125000E-02
 5.306000E-02  1.125000E-02  1.125000E-02
 6.064000E-02  1.125000E-02  1.125000E-02
 6.822000E-02  1.125000E-02  1.125000E-02
 7.580000E-02  1.125000E-02  1.125000E-02
 8.338000E-02  1.125000E-02  1.125000E-02
 9.096000E-02  1.125000E-02  1.125000E-02
 9.854000E-02  1.125000E-02  1.125000E-02
 1.061200E-01  1.125000E-02  1.125000E-02
 1.137000E-01  1.125000E-02  1.125000E-02
 1.212800E-01  1.125000E-02  1.125000E-02
 1.288600E-01  1.125000E-02  1.125000E-02
 1.364400E-01  1.125000E-02  1.125000E-02
 1.440200E-01  1.125000E-02  1.125000E-02
 1.516000E-01  1.125000E-02  1.125000E-02
CELLS           20          180
8        0        1       22       21       42       43       64       63
8        1        2       23       22       43       44       65       64
8        2        3       24       23       44       45       66       65
8        3        4       25       24       45       46       67       66
8        4        5       26       25       46       47       68       67
8        5        6       27       26       47       48       69       68
8        6        7       28       27       48       49       70       69
8        7        8       29       28       49       50       71       70
8        8        9       30       29       50       51       72       71
8        9       10       31       30       51       52       73       72
8       10       11       32       31       52       53       74       73
8       11       12       33       32       53       54       75       74
8       12       13       34       33       54       55       76       75
8       13       14       35       34       55       56       77       76
8       14       15       36       35       56       57       78       77
8       15       16       37       36       57       58       79       78
8       16       17       38       37       58       59       80       79
8       17       18       39       38       59       60       81       80
8       18       19       40       39       60       61       82       81
8       19       20       41       40       61       62       83       82

CELL_TYPES           20
12
12
12
12
12
12
12
12
12
12
12
12
12
12
12
12
12
12
12
12

CELL_DATA       20
SCALARS Porosity             float 1
LOOKUP_TABLE default
 9.886947E-01  9.883076E-01  9.880151E-01  9.877784E-01  9.875785E-01  9.874045E-01  9.872492E-01  9.871080E-01  9.869775E-01  9.868552E-01
 9.867394E-01  9.866287E-01  9.865220E-01  9.864186E-01  9.863176E-01  9.862186E-01  9.861211E-01  9.860249E-01  9.859296E-01  9.858353E-01


SCALARS Permeability_X       float 1
LOOKUP_TABLE default
 1.000000E-12  1.000000E-12  1.000000E-12  1.000000E-12  1.000000E-12  1.000000E-12  1.000000E-12  1.000000E-12  1.000000E-12  1.000000E-12
 1.000000E-12  1.000000E-12  1.000000E-12  1.000000E-12  1.000000E-12  1.000000E-12  1.000000E-12  1.000000E-12  1.000000E-12  1.000000E-12


SCALARS Liquid_Pressure      float 1
LOOKUP_TABLE default
 7.500296E+06  7.500281E+06  7.500266E+06  7.500250E+06  7.500235E+06  7.500220E+06  7.500205E+06  7.500190E+06  7.500175E+06  7.500159E+06
 7.500144E+06  7.500129E+06  7.500114E+06  7.500099E+06  7.500083E+06  7.500068E+06  7.500053E+06  7.500038E+06  7.500023E+06  7.500008E+06


SCALARS Temperature          float 1
LOOKUP_TABLE default
 1.500000E+02  1.500000E+02  1.499999E+02  1.499999E+02  1.499999E+02  1.499999E+02  1.499999E+02  1.499998E+02  1.499998E+02  1.499998E+02
 1.499998E+02  1.499998E+02  1.499998E+02  1.499998E+02  1.499998E+02  1.499998E+02  1.499998E+02  1.499998E+02  1.499999E+02  1.500000E+02


SCALARS pH                   float 1
LOOKUP_TABLE default
 4.837954E+00  4.941716E+00  5.030993E+00  5.107866E+00  5.174790E+00  5.233818E+00  5.286541E+00  5.334166E+00  5.377617E+00  5.417607E+00
 5.454691E+00  5.489309E+00  5.521812E+00  5.552483E+00  5.581552E+00  5.609207E+00  5.635602E+00  5.660863E+00  5.685093E+00  5.708314E+00


SCALARS Total_H+             float 1
LOOKUP_TABLE default
-3.803250E-04 -4.420735E-04 -5.067431E-04 -5.730501E-04 -6.403664E-04 -7.083825E-04 -7.769554E-04 -8.460332E-04 -9.156147E-04 -9.857275E-04
-1.056415E-03 -1.127726E-03 -1.199714E-03 -1.272426E-03 -1.345906E-03 -1.420187E-03 -1.495291E-03 -1.571225E-03 -1.647978E-03 -1.725312E-03


SCALARS Total_SiO2(aq)       float 1
LOOKUP_TABLE default
 1.405333E-02  1.404671E-02  1.403953E-02  1.403181E-02  1.402357E-02  1.401484E-02  1.400565E-02  1.399601E-02  1.398594E-02  1.397547E-02
 1.396460E-02  1.395335E-02  1.394173E-02  1.392975E-02  1.391742E-02  1.390473E-02  1.389171E-02  1.387836E-02  1.386468E-02  1.385071E-02


SCALARS Total_Al+++          float 1
LOOKUP_TABLE default
 6.015348E-05  6.015348E-05  6.015348E-05  6.015348E-05  6.015348E-05  6.015348E-05  6.015348E-05  6.015348E-05  6.015348E-05  6.015348E-05
 6.015348E-05  6.015349E-05  6.015349E-05  6.015349E-05  6.015349E-05  6.015349E-05  6.015349E-05  6.015349E-05  6.015349E-05  6.015349E-05


SCALARS Total_Ca++           float 1
LOOKUP_TABLE default
 9.762956E-05  1.285038E-04  1.608386E-04  1.939921E-04  2.276502E-04  2.616583E-04  2.959448E-04  3.304837E-04  3.652744E-04  4.003308E-04
 4.356744E-04  4.713302E-04  5.073240E-04  5.436802E-04  5.804201E-04  6.175606E-04  6.551127E-04  6.930798E-04  7.314558E-04  7.701230E-04


SCALARS Total_Cl-            float 1
LOOKUP_TABLE default
 2.513233E-02  2.513233E-02  2.513233E-02  2.513233E-02  2.513233E-02  2.513233E-02  2.513233E-02  2.513233E-02  2.513233E-02  2.513233E-02
 2.513233E-02  2.513233E-02  2.513233E-02  2.513233E-02  2.513233E-02  2.513233E-02  2.513233E-02  2.513233E-02  2.513233E-02  2.513233E-02


SCALARS Total_CO2(aq)        float 1
LOOKUP_TABLE default
 1.359433E-02  1.362520E-02  1.365754E-02  1.369069E-02  1.372435E-02  1.375836E-02  1.379264E-02  1.382718E-02  1.386197E-02  1.389703E-02
 1.393237E-02  1.396803E-02  1.400402E-02  1.404038E-02  1.407712E-02  1.411426E-02  1.415181E-02  1.418978E-02  1.422816E-02  1.426682E-02


SCALARS Total_Na+            float 1
LOOKUP_TABLE default
 3.122900E-02  3.122900E-02  3.122900E-02  3.122900E-02  3.122900E-02  3.122900E-02  3.122900E-02  3.122900E-02  3.122900E-02  3.122900E-02
 3.122900E-02  3.122900E-02  3.122900E-02  3.122900E-02  3.122900E-02  3.122900E-02  3.122900E-02  3.122900E-02  3.122900E-02  3.122900E-02


SCALARS Total_K+             float 1
LOOKUP_TABLE default
 2.655416E-03  2.655416E-03  2.655416E-03  2.655416E-03  2.655416E-03  2.655416E-03  2.655416E-03  2.655416E-03  2.655416E-03  2.655416E-03
 2.655416E-03  2.655416E-03  2.655416E-03  2.655416E-03  2.655416E-03  2.655416E-03  2.655416E-03  2.655415E-03  2.655415E-03  2.655415E-03


SCALARS Total_Mg++           float 1
LOOKUP_TABLE default
 8.216757E-07  8.216757E-07  8.216757E-07  8.216757E-07  8.216757E-07  8.216757E-07  8.216757E-07  8.216757E-07  8.216757E-07  8.216757E-07
 8.216757E-07  8.216757E-07  8.216757E-07  8.216756E-07  8.216756E-07  8.216756E-07  8.216756E-07  8.216756E-07  8.216756E-07  8.216756E-07


SCALARS Total_Fe++           float 1
LOOKUP_TABLE default
 1.251593E-06  1.251593E-06  1.251593E-06  1.251593E-06  1.251593E-06  1.251593E-06  1.251593E-06  1.251593E-06  1.251593E-06  1.251593E-06
 1.251593E-06  1.251593E-06  1.251593E-06  1.251593E-06  1.251592E-06  1.251592E-06  1.251592E-06  1.251592E-06  1.251592E-06  1.251592E-06


SCALARS Total_Cu++           float 1
LOOKUP_TABLE default
 9.952832E-11  9.952832E-11  9.952832E-11  9.952832E-11  9.952832E-11  9.952832E-11  9.952832E-11  9.952832E-11  9.952832E-11  9.952832E-11
 9.952832E-11  9.952832E-11  9.952832E-11  9.952832E-11  9.952832E-11  9.952832E-11  9.952832E-11  9.952832E-11  9.952832E-11  9.952831E-11


SCALARS Total_SO4--          float 1
LOOKUP_TABLE default
 4.376188E-03  4.376188E-03  4.376188E-03  4.376188E-03  4.376188E-03  4.376188E-03  4.376188E-03  4.376188E-03  4.376188E-03  4.376188E-03
 4.376188E-03  4.376188E-03  4.376188E-03  4.376188E-03  4.376188E-03  4.376188E-03  4.376188E-03  4.376188E-03  4.376188E-03  4.376188E-03


SCALARS Total_Tracer         float 1
LOOKUP_TABLE default
 9.952832E-11  9.952832E-11  9.952832E-11  9.952832E-11  9.952832E-11  9.952832E-11  9.952832E-11  9.952832E-11  9.952832E-11  9.952832E-11
 9.952832E-11  9.952832E-11  9.952832E-11  9.952832E-11  9.952832E-11  9.952832E-11  9.952832E-11  9.952832E-11  9.952832E-11  9.952831E-11


SCALARS Active_Gas_CO2(g)    float 1
LOOKUP_TABLE default
 0.000000E+00  0.000000E+00  0.000000E+00  0.000000E+00  0.000000E+00  0.000000E+00  0.000000E+00  0.000000E+00  0.000000E+00  0.000000E+00
 0.000000E+00  0.000000E+00  0.000000E+00  0.000000E+00  0.000000E+00  0.000000E+00  0.000000E+00  0.000000E+00  0.000000E+00  0.000000E+00


SCALARS HCO3-                float 1
LOOKUP_TABLE default
 2.097656E-04  2.658846E-04  3.259011E-04  3.881717E-04  4.518348E-04  5.164357E-04  5.817380E-04  6.476276E-04  7.140594E-04  7.810289E-04
 8.485541E-04  9.166651E-04  9.853969E-04  1.054784E-03  1.124857E-03  1.195638E-03  1.267140E-03  1.339362E-03  1.412285E-03  1.485678E-03


SCALARS H2SiO4--             float 1
LOOKUP_TABLE default
 5.699830E-13  9.189118E-13  1.385822E-12  1.973882E-12  2.685499E-12  3.523103E-12  4.489527E-12  5.588170E-12  6.823063E-12  8.198886E-12
 9.720944E-12  1.139513E-11  1.322788E-11  1.522607E-11  1.739692E-11  1.974787E-11  2.228637E-11  2.501969E-11  2.795459E-11  3.108857E-11


SCALARS H3SiO4-              float 1
LOOKUP_TABLE default
 1.667066E-06  2.116031E-06  2.597706E-06  3.099116E-06  3.613444E-06  4.137085E-06  4.668172E-06  5.205813E-06  5.749676E-06  6.299757E-06
 6.856247E-06  7.419438E-06  7.989671E-06  8.567292E-06  9.152619E-06  9.745910E-06  1.034734E-05  1.095698E-05  1.157473E-05  1.219871E-05


SCALARS Calcite_VF           float 1
LOOKUP_TABLE default
 1.082550E-02  1.114174E-02  1.137799E-02  1.156760E-02  1.172688E-02  1.186530E-02  1.198887E-02  1.210162E-02  1.220637E-02  1.230517E-02
 1.239952E-02  1.249060E-02  1.257928E-02  1.266627E-02  1.275212E-02  1.283727E-02  1.292207E-02  1.300679E-02  1.309164E-02  1.317655E-02


SCALARS SiO2(am)_VF          float 1
LOOKUP_TABLE default
 4.674148E-04  5.369860E-04  5.928012E-04  6.396983E-04  6.802038E-04  7.158346E-04  7.475811E-04  7.761281E-04  8.019700E-04  8.254761E-04
 8.469296E-04  8.665528E-04  8.845234E-04  9.009855E-04  9.160582E-04  9.298406E-04  9.424166E-04  9.538577E-04  9.642256E-04  9.735537E-04


SCALARS Calcite_Rate         float 1
LOOKUP_TABLE default
-3.728017E-05 -4.106079E-05 -4.297942E-05 -4.404272E-05 -4.468772E-05 -4.512699E-05 -4.547132E-05 -4.578125E-05 -4.609072E-05 -4.641877E-05
-4.677561E-05 -4.716593E-05 -4.759068E-05 -4.804809E-05 -4.853419E-05 -4.904302E-05 -4.956673E-05 -5.009550E-05 -5.061737E-05 -5.111750E-05


SCALARS SiO2(am)_Rate        float 1
LOOKUP_TABLE default
 8.071873E-06  8.806697E-06  9.553659E-06  1.027383E-05  1.095800E-05  1.160628E-05  1.222173E-05  1.280810E-05  1.336904E-05  1.390786E-05
 1.442745E-05  1.493029E-05  1.541852E-05  1.589391E-05  1.635798E-05  1.681195E-05  1.725681E-05  1.769333E-05  1.812205E-05  1.854222E-05


SCALARS Calcite_Area         float 1
LOOKUP_TABLE default
 7.731359E-01  1.032112E+00  1.273533E+00  1.502582E+00  1.722804E+00  1.937256E+00  2.148645E+00  2.359393E+00  2.571688E+00  2.787537E+00
 3.008815E+00  3.237305E+00  3.474731E+00  3.722786E+00  3.983149E+00  4.257501E+00  4.547532E+00  4.854936E+00  5.181404E+00  5.527743E+00


SCALARS SiO2(am)_Area        float 1
LOOKUP_TABLE default
 1.290872E+05  1.232415E+05  1.192418E+05  1.162530E+05  1.138986E+05  1.119778E+05  1.103713E+05  1.090029E+05  1.078212E+05  1.067899E+05
 1.058825E+05  1.050793E+05  1.043651E+05  1.037278E+05  1.031581E+05  1.026483E+05  1.021921E+05  1.017844E+05  1.014209E+05  1.010986E+05


SCALARS Material_ID          int 1
LOOKUP_TABLE default
  1
  1
  1
  1
  1
  1
  1
  1
  1
  1
  1
  1
  1
  1
  1
  1
  1
  1
  1
  1


