# vtk DataFile Version 2.0
PFLOTRAN output
ASCII
DATASET UNSTRUCTURED_GRID
POINTS           84 float
 0.000000E+00  0.000000E+00  0.000000E+00
 7.580000E-03  0.000000E+00  0.000000E+00
 1.516000E-02  0.000000E+00  0.000000E+00
 2.274000E-02  0.000000E+00  0.000000E+00
 3.032000E-02  0.000000E+00  0.000000E+00
 3.790000E-02  0.000000E+00  0.000000E+00
 4.548000E-02  0.000000E+00  0.000000E+00
 5.306000E-02  0.000000E+00  0.000000E+00
 6.064000E-02  0.000000E+00  0.000000E+00
 6.822000E-02  0.000000E+00  0.000000E+00
 7.580000E-02  0.000000E+00  0.000000E+00
 8.338000E-02  0.000000E+00  0.000000E+00
 9.096000E-02  0.000000E+00  0.000000E+00
 9.854000E-02  0.000000E+00  0.000000E+00
 1.061200E-01  0.000000E+00  0.000000E+00
 1.137000E-01  0.000000E+00  0.000000E+00
 1.212800E-01  0.000000E+00  0.000000E+00
 1.288600E-01  0.000000E+00  0.000000E+00
 1.364400E-01  0.000000E+00  0.000000E+00
 1.440200E-01  0.000000E+00  0.000000E+00
 1.516000E-01  0.000000E+00  0.000000E+00
 0.000000E+00  1.125000E-02  0.000000E+00
 7.580000E-03  1.125000E-02  0.000000E+00
 1.516000E-02  1.125000E-02  0.000000E+00
 2.274000E-02  1.125000E-02  0.000000E+00
 3.032000E-02  1.125000E-02  0.000000E+00
 3.790000E-02  1.125000E-02  0.000000E+00
 4.548000E-02  1.125000E-02  0.000000E+00
 5.306000E-02  1.125000E-02  0.000000E+00
 6.064000E-02  1.125000E-02  0.000000E+00
 6.822000E-02  1.125000E-02  0.000000E+00
 7.580000E-02  1.125000E-02  0.000000E+00
 8.338000E-02  1.125000E-02  0.000000E+00
 9.096000E-02  1.125000E-02  0.000000E+00
 9.854000E-02  1.125000E-02  0.000000E+00
 1.061200E-01  1.125000E-02  0.000000E+00
 1.137000E-01  1.125000E-02  0.000000E+00
 1.212800E-01  1.125000E-02  0.000000E+00
 1.288600E-01  1.125000E-02  0.000000E+00
 1.364400E-01  1.125000E-02  0.000000E+00
 1.440200E-01  1.125000E-02  0.000000E+00
 1.516000E-01  1.125000E-02  0.000000E+00
 0.000000E+00  0.000000E+00  1.125000E-02
 7.580000E-03  0.000000E+00  1.125000E-02
 1.516000E-02  0.000000E+00  1.125000E-02
 2.274000E-02  0.000000E+00  1.125000E-02
 3.032000E-02  0.000000E+00  1.125000E-02
 3.790000E-02  0.000000E+00  1.125000E-02
 4.548000E-02  0.000000E+00  1.125000E-02
 5.306000E-02  0.000000E+00  1.125000E-02
 6.064000E-02  0.000000E+00  1.125000E-02
 6.822000E-02  0.000000E+00  1.125000E-02
 7.580000E-02  0.000000E+00  1.125000E-02
 8.338000E-02  0.000000E+00  1.125000E-02
 9.096000E-02  0.000000E+00  1.125000E-02
 9.854000E-02  0.000000E+00  1.125000E-02
 1.061200E-01  0.000000E+00  1.125000E-02
 1.137000E-01  0.000000E+00  1.125000E-02
 1.212800E-01  0.000000E+00  1.125000E-02
 1.288600E-01  0.000000E+00  1.125000E-02
 1.364400E-01  0.000000E+00  1.125000E-02
 1.440200E-01  0.000000E+00  1.125000E-02
 1.516000E-01  0.000000E+00  1.125000E-02
 0.000000E+00  1.125000E-02  1.125000E-02
 7.580000E-03  1.125000E-02  1.125000E-02
 1.516000E-02  1.125000E-02  1.125000E-02
 2.274000E-02  1.125000E-02  1.125000E-02
 3.032000E-02  1.125000E-02  1.125000E-02
 3.790000E-02  1.125000E-02  1.125000E-02
 4.548000E-02  1.125000E-02  1.125000E-02
 5.306000E-02  1.125000E-02  1.125000E-02
 6.064000E-02  1.125000E-02  1.125000E-02
 6.822000E-02  1.125000E-02  1.125000E-02
 7.580000E-02  1.125000E-02  1.125000E-02
 8.338000E-02  1.125000E-02  1.125000E-02
 9.096000E-02  1.125000E-02  1.125000E-02
 9.854000E-02  1.125000E-02  1.125000E-02
 1.061200E-01  1.125000E-02  1.125000E-02
 1.137000E-01  1.125000E-02  1.125000E-02
 1.212800E-01  1.125000E-02  1.125000E-02
 1.288600E-01  1.125000E-02  1.125000E-02
 1.364400E-01  1.125000E-02  1.125000E-02
 1.440200E-01  1.125000E-02  1.125000E-02
 1.516000E-01  1.125000E-02  1.125000E-02
CELLS           20          180
8        0        1       22       21       42       43       64       63
8        1        2       23       22       43       44       65       64
8        2        3       24       23       44       45       66       65
8        3        4       25       24       45       46       67       66
8        4        5       26       25       46       47       68       67
8        5        6       27       26       47       48       69       68
8        6        7       28       27       48       49       70       69
8        7        8       29       28       49       50       71       70
8        8        9       30       29       50       51       72       71
8        9       10       31       30       51       52       73       72
8       10       11       32       31       52       53       74       73
8       11       12       33       32       53       54       75       74
8       12       13       34       33       54       55       76       75
8       13       14       35       34       55       56       77       76
8       14       15       36       35       56       57       78       77
8       15       16       37       36       57       58       79       78
8       16       17       38       37       58       59       80       79
8       17       18       39       38       59       60       81       80
8       18       19       40       39       60       61       82       81
8       19       20       41       40       61       62       83       82

CELL_TYPES           20
12
12
12
12
12
12
12
12
12
12
12
12
12
12
12
12
12
12
12
12

CELL_DATA       20
SCALARS Porosity             float 1
LOOKUP_TABLE default
 9.895630E-01  9.892905E-01  9.890628E-01  9.888644E-01  9.886876E-01  9.885275E-01  9.883810E-01  9.882454E-01  9.881191E-01  9.880006E-01
 9.878886E-01  9.877822E-01  9.876807E-01  9.875833E-01  9.874896E-01  9.873990E-01  9.873112E-01  9.872258E-01  9.871425E-01  9.870612E-01


SCALARS Permeability_X       float 1
LOOKUP_TABLE default
 1.000000E-12  1.000000E-12  1.000000E-12  1.000000E-12  1.000000E-12  1.000000E-12  1.000000E-12  1.000000E-12  1.000000E-12  1.000000E-12
 1.000000E-12  1.000000E-12  1.000000E-12  1.000000E-12  1.000000E-12  1.000000E-12  1.000000E-12  1.000000E-12  1.000000E-12  1.000000E-12


SCALARS Liquid_Pressure      float 1
LOOKUP_TABLE default
 7.500296E+06  7.500281E+06  7.500266E+06  7.500250E+06  7.500235E+06  7.500220E+06  7.500205E+06  7.500190E+06  7.500175E+06  7.500159E+06
 7.500144E+06  7.500129E+06  7.500114E+06  7.500099E+06  7.500083E+06  7.500068E+06  7.500053E+06  7.500038E+06  7.500023E+06  7.500008E+06


SCALARS Temperature          float 1
LOOKUP_TABLE default
 1.500000E+02  1.500000E+02  1.500000E+02  1.500000E+02  1.500000E+02  1.500000E+02  1.500000E+02  1.499999E+02  1.499999E+02  1.499999E+02
 1.499999E+02  1.499999E+02  1.499999E+02  1.499999E+02  1.499999E+02  1.499999E+02  1.499999E+02  1.499999E+02  1.500000E+02  1.500000E+02


SCALARS pH                   float 1
LOOKUP_TABLE default
 4.767807E+00  4.814745E+00  4.860872E+00  4.905302E+00  4.947638E+00  4.987757E+00  5.025688E+00  5.061537E+00  5.095448E+00  5.127575E+00
 5.158074E+00  5.187091E+00  5.214762E+00  5.241210E+00  5.266549E+00  5.290879E+00  5.314292E+00  5.336870E+00  5.358686E+00  5.379751E+00


SCALARS Total_H+             float 1
LOOKUP_TABLE default
-3.451133E-04 -3.681548E-04 -3.928893E-04 -4.189274E-04 -4.460008E-04 -4.739202E-04 -5.025503E-04 -5.317945E-04 -5.615842E-04 -5.918717E-04
-6.226248E-04 -6.538231E-04 -6.854553E-04 -7.175170E-04 -7.500099E-04 -7.829398E-04 -8.163166E-04 -8.501530E-04 -8.844644E-04 -9.191764E-04


SCALARS Total_SiO2(aq)       float 1
LOOKUP_TABLE default
 1.405467E-02  1.404983E-02  1.404484E-02  1.403968E-02  1.403434E-02  1.402880E-02  1.402308E-02  1.401717E-02  1.401107E-02  1.400479E-02
 1.399833E-02  1.399168E-02  1.398486E-02  1.397786E-02  1.397069E-02  1.396335E-02  1.395584E-02  1.394816E-02  1.394032E-02  1.393234E-02


SCALARS Total_Al+++          float 1
LOOKUP_TABLE default
 6.015348E-05  6.015348E-05  6.015348E-05  6.015348E-05  6.015348E-05  6.015348E-05  6.015348E-05  6.015348E-05  6.015348E-05  6.015348E-05
 6.015348E-05  6.015348E-05  6.015348E-05  6.015348E-05  6.015348E-05  6.015348E-05  6.015348E-05  6.015348E-05  6.015348E-05  6.015348E-05


SCALARS Total_Ca++           float 1
LOOKUP_TABLE default
 8.002371E-05  9.154445E-05  1.039117E-04  1.169308E-04  1.304675E-04  1.444272E-04  1.587422E-04  1.733643E-04  1.882592E-04  2.034029E-04
 2.187795E-04  2.343786E-04  2.501947E-04  2.662256E-04  2.824720E-04  2.989370E-04  3.156254E-04  3.325436E-04  3.496993E-04  3.670553E-04


SCALARS Total_Cl-            float 1
LOOKUP_TABLE default
 2.513233E-02  2.513233E-02  2.513233E-02  2.513233E-02  2.513233E-02  2.513233E-02  2.513233E-02  2.513233E-02  2.513233E-02  2.513233E-02
 2.513233E-02  2.513233E-02  2.513233E-02  2.513233E-02  2.513233E-02  2.513233E-02  2.513233E-02  2.513233E-02  2.513233E-02  2.513233E-02


SCALARS Total_CO2(aq)        float 1
LOOKUP_TABLE default
 1.357672E-02  1.358824E-02  1.360061E-02  1.361363E-02  1.362717E-02  1.364113E-02  1.365544E-02  1.367006E-02  1.368496E-02  1.370010E-02
 1.371548E-02  1.373108E-02  1.374689E-02  1.376293E-02  1.377917E-02  1.379564E-02  1.381232E-02  1.382924E-02  1.384640E-02  1.386375E-02


SCALARS Total_Na+            float 1
LOOKUP_TABLE default
 3.122900E-02  3.122900E-02  3.122900E-02  3.122900E-02  3.122900E-02  3.122900E-02  3.122900E-02  3.122900E-02  3.122900E-02  3.122900E-02
 3.122900E-02  3.122900E-02  3.122900E-02  3.122900E-02  3.122900E-02  3.122900E-02  3.122900E-02  3.122900E-02  3.122900E-02  3.122900E-02


SCALARS Total_K+             float 1
LOOKUP_TABLE default
 2.655416E-03  2.655416E-03  2.655416E-03  2.655416E-03  2.655416E-03  2.655416E-03  2.655416E-03  2.655416E-03  2.655416E-03  2.655416E-03
 2.655416E-03  2.655416E-03  2.655416E-03  2.655416E-03  2.655416E-03  2.655416E-03  2.655416E-03  2.655416E-03  2.655416E-03  2.655416E-03


SCALARS Total_Mg++           float 1
LOOKUP_TABLE default
 8.216757E-07  8.216757E-07  8.216757E-07  8.216757E-07  8.216757E-07  8.216757E-07  8.216757E-07  8.216757E-07  8.216757E-07  8.216757E-07
 8.216757E-07  8.216757E-07  8.216757E-07  8.216756E-07  8.216756E-07  8.216756E-07  8.216756E-07  8.216756E-07  8.216756E-07  8.216756E-07


SCALARS Total_Fe++           float 1
LOOKUP_TABLE default
 1.251593E-06  1.251593E-06  1.251593E-06  1.251593E-06  1.251593E-06  1.251593E-06  1.251593E-06  1.251593E-06  1.251593E-06  1.251593E-06
 1.251593E-06  1.251593E-06  1.251593E-06  1.251593E-06  1.251593E-06  1.251593E-06  1.251592E-06  1.251592E-06  1.251592E-06  1.251592E-06


SCALARS Total_Cu++           float 1
LOOKUP_TABLE default
 9.952832E-11  9.952832E-11  9.952832E-11  9.952832E-11  9.952832E-11  9.952832E-11  9.952832E-11  9.952832E-11  9.952832E-11  9.952832E-11
 9.952832E-11  9.952832E-11  9.952832E-11  9.952832E-11  9.952832E-11  9.952832E-11  9.952832E-11  9.952832E-11  9.952832E-11  9.952832E-11


SCALARS Total_SO4--          float 1
LOOKUP_TABLE default
 4.376188E-03  4.376188E-03  4.376188E-03  4.376188E-03  4.376188E-03  4.376188E-03  4.376188E-03  4.376188E-03  4.376188E-03  4.376188E-03
 4.376188E-03  4.376188E-03  4.376188E-03  4.376188E-03  4.376188E-03  4.376188E-03  4.376188E-03  4.376188E-03  4.376188E-03  4.376188E-03


SCALARS Total_Tracer         float 1
LOOKUP_TABLE default
 9.952832E-11  9.952832E-11  9.952832E-11  9.952832E-11  9.952832E-11  9.952832E-11  9.952832E-11  9.952832E-11  9.952832E-11  9.952832E-11
 9.952832E-11  9.952832E-11  9.952832E-11  9.952832E-11  9.952832E-11  9.952832E-11  9.952832E-11  9.952832E-11  9.952832E-11  9.952832E-11


SCALARS Active_Gas_CO2(g)    float 1
LOOKUP_TABLE default
 0.000000E+00  0.000000E+00  0.000000E+00  0.000000E+00  0.000000E+00  0.000000E+00  0.000000E+00  0.000000E+00  0.000000E+00  0.000000E+00
 0.000000E+00  0.000000E+00  0.000000E+00  0.000000E+00  0.000000E+00  0.000000E+00  0.000000E+00  0.000000E+00  0.000000E+00  0.000000E+00


SCALARS HCO3-                float 1
LOOKUP_TABLE default
 1.786551E-04  1.989193E-04  2.210514E-04  2.446731E-04  2.695023E-04  2.953268E-04  3.219871E-04  3.493644E-04  3.773707E-04  4.059415E-04
 4.350306E-04  4.646056E-04  4.946452E-04  5.251366E-04  5.560737E-04  5.874561E-04  6.192878E-04  6.515764E-04  6.843327E-04  7.174818E-04


SCALARS H2SiO4--             float 1
LOOKUP_TABLE default
 4.126291E-13  5.120582E-13  6.330722E-13  7.765913E-13  9.434969E-13  1.134621E-12  1.350765E-12  1.592728E-12  1.861325E-12  2.157406E-12
 2.481873E-12  2.835688E-12  3.219884E-12  3.635578E-12  4.083972E-12  4.566367E-12  5.084167E-12  5.638891E-12  6.232171E-12  6.864049E-12


SCALARS H3SiO4-              float 1
LOOKUP_TABLE default
 1.418539E-06  1.579917E-06  1.756348E-06  1.944849E-06  2.143196E-06  2.349716E-06  2.563153E-06  2.782574E-06  3.007286E-06  3.236786E-06
 3.470715E-06  3.708825E-06  3.950954E-06  4.197011E-06  4.446960E-06  4.700809E-06  4.958605E-06  5.220424E-06  5.486367E-06  5.755844E-06


SCALARS Calcite_VF           float 1
LOOKUP_TABLE default
 9.681852E-03  9.869891E-03  1.002513E-02  1.015958E-02  1.027899E-02  1.038684E-02  1.048553E-02  1.057683E-02  1.066209E-02  1.074237E-02
 1.081851E-02  1.089121E-02  1.096103E-02  1.102846E-02  1.109391E-02  1.115770E-02  1.122015E-02  1.128151E-02  1.134200E-02  1.140168E-02


SCALARS SiO2(am)_VF          float 1
LOOKUP_TABLE default
 7.515766E-04  8.355506E-04  9.076170E-04  9.712806E-04  1.028502E-03  1.080548E-03  1.128306E-03  1.172430E-03  1.213418E-03  1.251661E-03
 1.287473E-03  1.321107E-03  1.352775E-03  1.382651E-03  1.410886E-03  1.437604E-03  1.462916E-03  1.486915E-03  1.509683E-03  1.531240E-03


SCALARS Calcite_Rate         float 1
LOOKUP_TABLE default
-1.379831E-05 -1.533202E-05 -1.645463E-05 -1.731732E-05 -1.800122E-05 -1.855872E-05 -1.902602E-05 -1.942889E-05 -1.978606E-05 -2.011134E-05
-2.041510E-05 -2.070519E-05 -2.098765E-05 -2.126724E-05 -2.154769E-05 -2.183204E-05 -2.212277E-05 -2.242196E-05 -2.273137E-05 -2.305175E-05


SCALARS SiO2(am)_Rate        float 1
LOOKUP_TABLE default
 6.284189E-06  6.440145E-06  6.644003E-06  6.873046E-06  7.115239E-06  7.363634E-06  7.614080E-06  7.864075E-06  8.112131E-06  8.357392E-06
 8.599411E-06  8.837999E-06  9.073136E-06  9.304909E-06  9.533473E-06  9.759025E-06  9.981788E-06  1.020200E-05  1.041989E-05  1.063515E-05


SCALARS Calcite_Area         float 1
LOOKUP_TABLE default
 2.511123E-01  3.045294E-01  3.560871E-01  4.069366E-01  4.574602E-01  5.078602E-01  5.582937E-01  6.089103E-01  6.598622E-01  7.113071E-01
 7.634078E-01  8.163322E-01  8.702531E-01  9.253486E-01  9.818024E-01  1.039805E+00  1.099555E+00  1.161259E+00  1.225134E+00  1.291239E+00


SCALARS SiO2(am)_Area        float 1
LOOKUP_TABLE default
 1.100832E+05  1.062571E+05  1.033627E+05  1.010505E+05  9.913905E+04  9.752001E+04  9.612354E+04  9.490183E+04  9.382078E+04  9.285526E+04
 9.198624E+04  9.119898E+04  9.048189E+04  8.982563E+04  8.922266E+04  8.866674E+04  8.815271E+04  8.767621E+04  8.723359E+04  8.682269E+04


SCALARS Material_ID          int 1
LOOKUP_TABLE default
  1
  1
  1
  1
  1
  1
  1
  1
  1
  1
  1
  1
  1
  1
  1
  1
  1
  1
  1
  1


