# vtk DataFile Version 2.0
PFLOTRAN output
ASCII
DATASET UNSTRUCTURED_GRID
POINTS           84 float
 0.000000E+00  0.000000E+00  0.000000E+00
 7.580000E-03  0.000000E+00  0.000000E+00
 1.516000E-02  0.000000E+00  0.000000E+00
 2.274000E-02  0.000000E+00  0.000000E+00
 3.032000E-02  0.000000E+00  0.000000E+00
 3.790000E-02  0.000000E+00  0.000000E+00
 4.548000E-02  0.000000E+00  0.000000E+00
 5.306000E-02  0.000000E+00  0.000000E+00
 6.064000E-02  0.000000E+00  0.000000E+00
 6.822000E-02  0.000000E+00  0.000000E+00
 7.580000E-02  0.000000E+00  0.000000E+00
 8.338000E-02  0.000000E+00  0.000000E+00
 9.096000E-02  0.000000E+00  0.000000E+00
 9.854000E-02  0.000000E+00  0.000000E+00
 1.061200E-01  0.000000E+00  0.000000E+00
 1.137000E-01  0.000000E+00  0.000000E+00
 1.212800E-01  0.000000E+00  0.000000E+00
 1.288600E-01  0.000000E+00  0.000000E+00
 1.364400E-01  0.000000E+00  0.000000E+00
 1.440200E-01  0.000000E+00  0.000000E+00
 1.516000E-01  0.000000E+00  0.000000E+00
 0.000000E+00  1.125000E-02  0.000000E+00
 7.580000E-03  1.125000E-02  0.000000E+00
 1.516000E-02  1.125000E-02  0.000000E+00
 2.274000E-02  1.125000E-02  0.000000E+00
 3.032000E-02  1.125000E-02  0.000000E+00
 3.790000E-02  1.125000E-02  0.000000E+00
 4.548000E-02  1.125000E-02  0.000000E+00
 5.306000E-02  1.125000E-02  0.000000E+00
 6.064000E-02  1.125000E-02  0.000000E+00
 6.822000E-02  1.125000E-02  0.000000E+00
 7.580000E-02  1.125000E-02  0.000000E+00
 8.338000E-02  1.125000E-02  0.000000E+00
 9.096000E-02  1.125000E-02  0.000000E+00
 9.854000E-02  1.125000E-02  0.000000E+00
 1.061200E-01  1.125000E-02  0.000000E+00
 1.137000E-01  1.125000E-02  0.000000E+00
 1.212800E-01  1.125000E-02  0.000000E+00
 1.288600E-01  1.125000E-02  0.000000E+00
 1.364400E-01  1.125000E-02  0.000000E+00
 1.440200E-01  1.125000E-02  0.000000E+00
 1.516000E-01  1.125000E-02  0.000000E+00
 0.000000E+00  0.000000E+00  1.125000E-02
 7.580000E-03  0.000000E+00  1.125000E-02
 1.516000E-02  0.000000E+00  1.125000E-02
 2.274000E-02  0.000000E+00  1.125000E-02
 3.032000E-02  0.000000E+00  1.125000E-02
 3.790000E-02  0.000000E+00  1.125000E-02
 4.548000E-02  0.000000E+00  1.125000E-02
 5.306000E-02  0.000000E+00  1.125000E-02
 6.064000E-02  0.000000E+00  1.125000E-02
 6.822000E-02  0.000000E+00  1.125000E-02
 7.580000E-02  0.000000E+00  1.125000E-02
 8.338000E-02  0.000000E+00  1.125000E-02
 9.096000E-02  0.000000E+00  1.125000E-02
 9.854000E-02  0.000000E+00  1.125000E-02
 1.061200E-01  0.000000E+00  1.125000E-02
 1.137000E-01  0.000000E+00  1.125000E-02
 1.212800E-01  0.000000E+00  1.125000E-02
 1.288600E-01  0.000000E+00  1.125000E-02
 1.364400E-01  0.000000E+00  1.125000E-02
 1.440200E-01  0.000000E+00  1.125000E-02
 1.516000E-01  0.000000E+00  1.125000E-02
 0.000000E+00  1.125000E-02  1.125000E-02
 7.580000E-03  1.125000E-02  1.125000E-02
 1.516000E-02  1.125000E-02  1.125000E-02
 2.274000E-02  1.125000E-02  1.125000E-02
 3.032000E-02  1.125000E-02  1.125000E-02
 3.790000E-02  1.125000E-02  1.125000E-02
 4.548000E-02  1.125000E-02  1.125000E-02
 5.306000E-02  1.125000E-02  1.125000E-02
 6.064000E-02  1.125000E-02  1.125000E-02
 6.822000E-02  1.125000E-02  1.125000E-02
 7.580000E-02  1.125000E-02  1.125000E-02
 8.338000E-02  1.125000E-02  1.125000E-02
 9.096000E-02  1.125000E-02  1.125000E-02
 9.854000E-02  1.125000E-02  1.125000E-02
 1.061200E-01  1.125000E-02  1.125000E-02
 1.137000E-01  1.125000E-02  1.125000E-02
 1.212800E-01  1.125000E-02  1.125000E-02
 1.288600E-01  1.125000E-02  1.125000E-02
 1.364400E-01  1.125000E-02  1.125000E-02
 1.440200E-01  1.125000E-02  1.125000E-02
 1.516000E-01  1.125000E-02  1.125000E-02
CELLS           20          180
8        0        1       22       21       42       43       64       63
8        1        2       23       22       43       44       65       64
8        2        3       24       23       44       45       66       65
8        3        4       25       24       45       46       67       66
8        4        5       26       25       46       47       68       67
8        5        6       27       26       47       48       69       68
8        6        7       28       27       48       49       70       69
8        7        8       29       28       49       50       71       70
8        8        9       30       29       50       51       72       71
8        9       10       31       30       51       52       73       72
8       10       11       32       31       52       53       74       73
8       11       12       33       32       53       54       75       74
8       12       13       34       33       54       55       76       75
8       13       14       35       34       55       56       77       76
8       14       15       36       35       56       57       78       77
8       15       16       37       36       57       58       79       78
8       16       17       38       37       58       59       80       79
8       17       18       39       38       59       60       81       80
8       18       19       40       39       60       61       82       81
8       19       20       41       40       61       62       83       82

CELL_TYPES           20
12
12
12
12
12
12
12
12
12
12
12
12
12
12
12
12
12
12
12
12

CELL_DATA       20
SCALARS Porosity             float 1
LOOKUP_TABLE default
 9.895559E-01  9.892822E-01  9.890537E-01  9.888548E-01  9.886776E-01  9.885172E-01  9.883704E-01  9.882348E-01  9.881083E-01  9.879897E-01
 9.878776E-01  9.877711E-01  9.876695E-01  9.875721E-01  9.874783E-01  9.873876E-01  9.872997E-01  9.872142E-01  9.871308E-01  9.870494E-01


SCALARS Permeability_X       float 1
LOOKUP_TABLE default
 1.000000E-12  1.000000E-12  1.000000E-12  1.000000E-12  1.000000E-12  1.000000E-12  1.000000E-12  1.000000E-12  1.000000E-12  1.000000E-12
 1.000000E-12  1.000000E-12  1.000000E-12  1.000000E-12  1.000000E-12  1.000000E-12  1.000000E-12  1.000000E-12  1.000000E-12  1.000000E-12


SCALARS Liquid_Pressure      float 1
LOOKUP_TABLE default
 7.500296E+06  7.500281E+06  7.500266E+06  7.500250E+06  7.500235E+06  7.500220E+06  7.500205E+06  7.500190E+06  7.500175E+06  7.500159E+06
 7.500144E+06  7.500129E+06  7.500114E+06  7.500099E+06  7.500083E+06  7.500068E+06  7.500053E+06  7.500038E+06  7.500023E+06  7.500008E+06


SCALARS Temperature          float 1
LOOKUP_TABLE default
 1.500000E+02  1.500000E+02  1.500000E+02  1.500000E+02  1.500000E+02  1.500000E+02  1.500000E+02  1.499999E+02  1.499999E+02  1.499999E+02
 1.499999E+02  1.499999E+02  1.499999E+02  1.499999E+02  1.499999E+02  1.499999E+02  1.499999E+02  1.499999E+02  1.500000E+02  1.500000E+02


SCALARS pH                   float 1
LOOKUP_TABLE default
 4.768275E+00  4.815660E+00  4.862185E+00  4.906957E+00  4.949583E+00  4.989945E+00  5.028080E+00  5.064102E+00  5.098160E+00  5.130413E+00
 5.161021E+00  5.190132E+00  5.217887E+00  5.244410E+00  5.269816E+00  5.294207E+00  5.317676E+00  5.340306E+00  5.362170E+00  5.383280E+00


SCALARS Total_H+             float 1
LOOKUP_TABLE default
-3.453332E-04 -3.686244E-04 -3.936264E-04 -4.199427E-04 -4.473015E-04 -4.755107E-04 -5.044338E-04 -5.339736E-04 -5.640611E-04 -5.946488E-04
-6.257045E-04 -6.572080E-04 -6.891485E-04 -7.215221E-04 -7.543307E-04 -7.875807E-04 -8.212824E-04 -8.554492E-04 -8.900967E-04 -9.251502E-04


SCALARS Total_SiO2(aq)       float 1
LOOKUP_TABLE default
 1.405466E-02  1.404981E-02  1.404480E-02  1.403962E-02  1.403425E-02  1.402870E-02  1.402295E-02  1.401701E-02  1.401089E-02  1.400457E-02
 1.399807E-02  1.399139E-02  1.398453E-02  1.397750E-02  1.397029E-02  1.396290E-02  1.395535E-02  1.394763E-02  1.393974E-02  1.393171E-02


SCALARS Total_Al+++          float 1
LOOKUP_TABLE default
 6.015348E-05  6.015348E-05  6.015348E-05  6.015348E-05  6.015348E-05  6.015348E-05  6.015348E-05  6.015348E-05  6.015348E-05  6.015348E-05
 6.015348E-05  6.015348E-05  6.015348E-05  6.015348E-05  6.015348E-05  6.015348E-05  6.015348E-05  6.015348E-05  6.015348E-05  6.015348E-05


SCALARS Total_Ca++           float 1
LOOKUP_TABLE default
 8.013366E-05  9.177926E-05  1.042802E-04  1.174384E-04  1.311178E-04  1.452224E-04  1.596840E-04  1.744539E-04  1.894976E-04  2.047915E-04
 2.203193E-04  2.360711E-04  2.520413E-04  2.682281E-04  2.846324E-04  3.012574E-04  3.181083E-04  3.351917E-04  3.525154E-04  3.700422E-04


SCALARS Total_Cl-            float 1
LOOKUP_TABLE default
 2.513233E-02  2.513233E-02  2.513233E-02  2.513233E-02  2.513233E-02  2.513233E-02  2.513233E-02  2.513233E-02  2.513233E-02  2.513233E-02
 2.513233E-02  2.513233E-02  2.513233E-02  2.513233E-02  2.513233E-02  2.513233E-02  2.513233E-02  2.513233E-02  2.513233E-02  2.513233E-02


SCALARS Total_CO2(aq)        float 1
LOOKUP_TABLE default
 1.357683E-02  1.358848E-02  1.360098E-02  1.361414E-02  1.362782E-02  1.364192E-02  1.365638E-02  1.367115E-02  1.368620E-02  1.370149E-02
 1.371702E-02  1.373277E-02  1.374874E-02  1.376493E-02  1.378133E-02  1.379796E-02  1.381481E-02  1.383189E-02  1.384921E-02  1.386674E-02


SCALARS Total_Na+            float 1
LOOKUP_TABLE default
 3.122900E-02  3.122900E-02  3.122900E-02  3.122900E-02  3.122900E-02  3.122900E-02  3.122900E-02  3.122900E-02  3.122900E-02  3.122900E-02
 3.122900E-02  3.122900E-02  3.122900E-02  3.122900E-02  3.122900E-02  3.122900E-02  3.122900E-02  3.122900E-02  3.122900E-02  3.122900E-02


SCALARS Total_K+             float 1
LOOKUP_TABLE default
 2.655416E-03  2.655416E-03  2.655416E-03  2.655416E-03  2.655416E-03  2.655416E-03  2.655416E-03  2.655416E-03  2.655416E-03  2.655416E-03
 2.655416E-03  2.655416E-03  2.655416E-03  2.655416E-03  2.655416E-03  2.655416E-03  2.655416E-03  2.655416E-03  2.655416E-03  2.655416E-03


SCALARS Total_Mg++           float 1
LOOKUP_TABLE default
 8.216757E-07  8.216757E-07  8.216757E-07  8.216757E-07  8.216757E-07  8.216757E-07  8.216757E-07  8.216757E-07  8.216757E-07  8.216757E-07
 8.216757E-07  8.216757E-07  8.216757E-07  8.216756E-07  8.216756E-07  8.216756E-07  8.216756E-07  8.216756E-07  8.216756E-07  8.216756E-07


SCALARS Total_Fe++           float 1
LOOKUP_TABLE default
 1.251593E-06  1.251593E-06  1.251593E-06  1.251593E-06  1.251593E-06  1.251593E-06  1.251593E-06  1.251593E-06  1.251593E-06  1.251593E-06
 1.251593E-06  1.251593E-06  1.251593E-06  1.251593E-06  1.251593E-06  1.251593E-06  1.251592E-06  1.251592E-06  1.251592E-06  1.251592E-06


SCALARS Total_Cu++           float 1
LOOKUP_TABLE default
 9.952832E-11  9.952832E-11  9.952832E-11  9.952832E-11  9.952832E-11  9.952832E-11  9.952832E-11  9.952832E-11  9.952832E-11  9.952832E-11
 9.952832E-11  9.952832E-11  9.952832E-11  9.952832E-11  9.952832E-11  9.952832E-11  9.952832E-11  9.952832E-11  9.952832E-11  9.952832E-11


SCALARS Total_SO4--          float 1
LOOKUP_TABLE default
 4.376188E-03  4.376188E-03  4.376188E-03  4.376188E-03  4.376188E-03  4.376188E-03  4.376188E-03  4.376188E-03  4.376188E-03  4.376188E-03
 4.376188E-03  4.376188E-03  4.376188E-03  4.376188E-03  4.376188E-03  4.376188E-03  4.376188E-03  4.376188E-03  4.376188E-03  4.376188E-03


SCALARS Total_Tracer         float 1
LOOKUP_TABLE default
 9.952832E-11  9.952832E-11  9.952832E-11  9.952832E-11  9.952832E-11  9.952832E-11  9.952832E-11  9.952832E-11  9.952832E-11  9.952832E-11
 9.952832E-11  9.952832E-11  9.952832E-11  9.952832E-11  9.952832E-11  9.952832E-11  9.952832E-11  9.952832E-11  9.952832E-11  9.952832E-11


SCALARS Active_Gas_CO2(g)    float 1
LOOKUP_TABLE default
 0.000000E+00  0.000000E+00  0.000000E+00  0.000000E+00  0.000000E+00  0.000000E+00  0.000000E+00  0.000000E+00  0.000000E+00  0.000000E+00
 0.000000E+00  0.000000E+00  0.000000E+00  0.000000E+00  0.000000E+00  0.000000E+00  0.000000E+00  0.000000E+00  0.000000E+00  0.000000E+00


SCALARS HCO3-                float 1
LOOKUP_TABLE default
 1.788466E-04  1.993362E-04  2.217159E-04  2.455998E-04  2.707008E-04  2.968034E-04  3.237463E-04  3.514093E-04  3.797038E-04  4.085653E-04
 4.379472E-04  4.678177E-04  4.981554E-04  5.289480E-04  5.601898E-04  5.918807E-04  6.240252E-04  6.566314E-04  6.897105E-04  7.231872E-04


SCALARS H2SiO4--             float 1
LOOKUP_TABLE default
 4.135189E-13  5.142202E-13  6.369113E-13  7.825326E-13  9.519829E-13  1.146109E-12  1.365727E-12  1.611650E-12  1.884709E-12  2.185774E-12
 2.515763E-12  2.875662E-12  3.266528E-12  3.689503E-12  4.145822E-12  4.636817E-12  5.163928E-12  5.728713E-12  6.332846E-12  6.976386E-12


SCALARS H3SiO4-              float 1
LOOKUP_TABLE default
 1.420067E-06  1.583246E-06  1.761661E-06  1.952268E-06  2.152803E-06  2.361567E-06  2.577291E-06  2.799029E-06  3.026087E-06  3.257959E-06
 3.494284E-06  3.734818E-06  3.979400E-06  4.227943E-06  4.480414E-06  4.736825E-06  4.997225E-06  5.261696E-06  5.530343E-06  5.802572E-06


SCALARS Calcite_VF           float 1
LOOKUP_TABLE default
 9.692889E-03  9.882156E-03  1.003829E-02  1.017344E-02  1.029339E-02  1.040168E-02  1.050075E-02  1.059237E-02  1.067792E-02  1.075845E-02
 1.083483E-02  1.090776E-02  1.097782E-02  1.104547E-02  1.111114E-02  1.117516E-02  1.123784E-02  1.129944E-02  1.136018E-02  1.142012E-02


SCALARS SiO2(am)_VF          float 1
LOOKUP_TABLE default
 7.476379E-04  8.315137E-04  9.034518E-04  9.669714E-04  1.024040E-03  1.075930E-03  1.123531E-03  1.167498E-03  1.208330E-03  1.246420E-03
 1.282079E-03  1.315564E-03  1.347084E-03  1.376815E-03  1.404905E-03  1.431482E-03  1.456654E-03  1.480515E-03  1.503147E-03  1.524568E-03


SCALARS Calcite_Rate         float 1
LOOKUP_TABLE default
-1.394499E-05 -1.549811E-05 -1.663239E-05 -1.750227E-05 -1.819067E-05 -1.875111E-05 -1.922045E-05 -1.962491E-05 -1.998348E-05 -2.031017E-05
-2.061544E-05 -2.090723E-05 -2.119164E-05 -2.147342E-05 -2.175637E-05 -2.204352E-05 -2.233736E-05 -2.263999E-05 -2.295316E-05 -2.327763E-05


SCALARS SiO2(am)_Rate        float 1
LOOKUP_TABLE default
 6.299069E-06  6.458247E-06  6.665563E-06  6.898037E-06  7.143526E-06  7.395045E-06  7.648436E-06  7.901207E-06  8.151885E-06  8.399633E-06
 8.644020E-06  8.884873E-06  9.122186E-06  9.356059E-06  9.586658E-06  9.814192E-06  1.003889E-05  1.026100E-05  1.048076E-05  1.069785E-05


SCALARS Calcite_Area         float 1
LOOKUP_TABLE default
 2.540034E-01  3.083531E-01  3.608124E-01  4.125452E-01  4.639382E-01  5.151976E-01  5.664849E-01  6.179543E-01  6.697632E-01  7.220742E-01
 7.750554E-01  8.288800E-01  8.837261E-01  9.397770E-01  9.972220E-01  1.056257E+00  1.117087E+00  1.179924E+00  1.244993E+00  1.312355E+00


SCALARS SiO2(am)_Area        float 1
LOOKUP_TABLE default
 1.102769E+05  1.064295E+05  1.035219E+05  1.012010E+05  9.928341E+04  9.765991E+04  9.626011E+04  9.503587E+04  9.395287E+04  9.298584E+04
 9.211566E+04  9.132751E+04  9.060974E+04  8.995300E+04  8.934969E+04  8.879358E+04  8.827947E+04  8.780300E+04  8.736050E+04  8.694981E+04


SCALARS Material_ID          int 1
LOOKUP_TABLE default
  1
  1
  1
  1
  1
  1
  1
  1
  1
  1
  1
  1
  1
  1
  1
  1
  1
  1
  1
  1


