# vtk DataFile Version 2.0
PFLOTRAN output
ASCII
DATASET UNSTRUCTURED_GRID
POINTS           84 float
 0.000000E+00  0.000000E+00  0.000000E+00
 7.580000E-03  0.000000E+00  0.000000E+00
 1.516000E-02  0.000000E+00  0.000000E+00
 2.274000E-02  0.000000E+00  0.000000E+00
 3.032000E-02  0.000000E+00  0.000000E+00
 3.790000E-02  0.000000E+00  0.000000E+00
 4.548000E-02  0.000000E+00  0.000000E+00
 5.306000E-02  0.000000E+00  0.000000E+00
 6.064000E-02  0.000000E+00  0.000000E+00
 6.822000E-02  0.000000E+00  0.000000E+00
 7.580000E-02  0.000000E+00  0.000000E+00
 8.338000E-02  0.000000E+00  0.000000E+00
 9.096000E-02  0.000000E+00  0.000000E+00
 9.854000E-02  0.000000E+00  0.000000E+00
 1.061200E-01  0.000000E+00  0.000000E+00
 1.137000E-01  0.000000E+00  0.000000E+00
 1.212800E-01  0.000000E+00  0.000000E+00
 1.288600E-01  0.000000E+00  0.000000E+00
 1.364400E-01  0.000000E+00  0.000000E+00
 1.440200E-01  0.000000E+00  0.000000E+00
 1.516000E-01  0.000000E+00  0.000000E+00
 0.000000E+00  1.125000E-02  0.000000E+00
 7.580000E-03  1.125000E-02  0.000000E+00
 1.516000E-02  1.125000E-02  0.000000E+00
 2.274000E-02  1.125000E-02  0.000000E+00
 3.032000E-02  1.125000E-02  0.000000E+00
 3.790000E-02  1.125000E-02  0.000000E+00
 4.548000E-02  1.125000E-02  0.000000E+00
 5.306000E-02  1.125000E-02  0.000000E+00
 6.064000E-02  1.125000E-02  0.000000E+00
 6.822000E-02  1.125000E-02  0.000000E+00
 7.580000E-02  1.125000E-02  0.000000E+00
 8.338000E-02  1.125000E-02  0.000000E+00
 9.096000E-02  1.125000E-02  0.000000E+00
 9.854000E-02  1.125000E-02  0.000000E+00
 1.061200E-01  1.125000E-02  0.000000E+00
 1.137000E-01  1.125000E-02  0.000000E+00
 1.212800E-01  1.125000E-02  0.000000E+00
 1.288600E-01  1.125000E-02  0.000000E+00
 1.364400E-01  1.125000E-02  0.000000E+00
 1.440200E-01  1.125000E-02  0.000000E+00
 1.516000E-01  1.125000E-02  0.000000E+00
 0.000000E+00  0.000000E+00  1.125000E-02
 7.580000E-03  0.000000E+00  1.125000E-02
 1.516000E-02  0.000000E+00  1.125000E-02
 2.274000E-02  0.000000E+00  1.125000E-02
 3.032000E-02  0.000000E+00  1.125000E-02
 3.790000E-02  0.000000E+00  1.125000E-02
 4.548000E-02  0.000000E+00  1.125000E-02
 5.306000E-02  0.000000E+00  1.125000E-02
 6.064000E-02  0.000000E+00  1.125000E-02
 6.822000E-02  0.000000E+00  1.125000E-02
 7.580000E-02  0.000000E+00  1.125000E-02
 8.338000E-02  0.000000E+00  1.125000E-02
 9.096000E-02  0.000000E+00  1.125000E-02
 9.854000E-02  0.000000E+00  1.125000E-02
 1.061200E-01  0.000000E+00  1.125000E-02
 1.137000E-01  0.000000E+00  1.125000E-02
 1.212800E-01  0.000000E+00  1.125000E-02
 1.288600E-01  0.000000E+00  1.125000E-02
 1.364400E-01  0.000000E+00  1.125000E-02
 1.440200E-01  0.000000E+00  1.125000E-02
 1.516000E-01  0.000000E+00  1.125000E-02
 0.000000E+00  1.125000E-02  1.125000E-02
 7.580000E-03  1.125000E-02  1.125000E-02
 1.516000E-02  1.125000E-02  1.125000E-02
 2.274000E-02  1.125000E-02  1.125000E-02
 3.032000E-02  1.125000E-02  1.125000E-02
 3.790000E-02  1.125000E-02  1.125000E-02
 4.548000E-02  1.125000E-02  1.125000E-02
 5.306000E-02  1.125000E-02  1.125000E-02
 6.064000E-02  1.125000E-02  1.125000E-02
 6.822000E-02  1.125000E-02  1.125000E-02
 7.580000E-02  1.125000E-02  1.125000E-02
 8.338000E-02  1.125000E-02  1.125000E-02
 9.096000E-02  1.125000E-02  1.125000E-02
 9.854000E-02  1.125000E-02  1.125000E-02
 1.061200E-01  1.125000E-02  1.125000E-02
 1.137000E-01  1.125000E-02  1.125000E-02
 1.212800E-01  1.125000E-02  1.125000E-02
 1.288600E-01  1.125000E-02  1.125000E-02
 1.364400E-01  1.125000E-02  1.125000E-02
 1.440200E-01  1.125000E-02  1.125000E-02
 1.516000E-01  1.125000E-02  1.125000E-02
CELLS           20          180
8        0        1       22       21       42       43       64       63
8        1        2       23       22       43       44       65       64
8        2        3       24       23       44       45       66       65
8        3        4       25       24       45       46       67       66
8        4        5       26       25       46       47       68       67
8        5        6       27       26       47       48       69       68
8        6        7       28       27       48       49       70       69
8        7        8       29       28       49       50       71       70
8        8        9       30       29       50       51       72       71
8        9       10       31       30       51       52       73       72
8       10       11       32       31       52       53       74       73
8       11       12       33       32       53       54       75       74
8       12       13       34       33       54       55       76       75
8       13       14       35       34       55       56       77       76
8       14       15       36       35       56       57       78       77
8       15       16       37       36       57       58       79       78
8       16       17       38       37       58       59       80       79
8       17       18       39       38       59       60       81       80
8       18       19       40       39       60       61       82       81
8       19       20       41       40       61       62       83       82

CELL_TYPES           20
12
12
12
12
12
12
12
12
12
12
12
12
12
12
12
12
12
12
12
12

CELL_DATA       20
SCALARS Porosity             float 1
LOOKUP_TABLE default
 9.876361E-01  9.871876E-01  9.868888E-01  9.866639E-01  9.864815E-01  9.863259E-01  9.861882E-01  9.860629E-01  9.859468E-01  9.858375E-01
 9.857336E-01  9.856342E-01  9.855386E-01  9.854465E-01  9.853578E-01  9.852726E-01  9.851909E-01  9.851129E-01  9.850390E-01  9.849694E-01


SCALARS Permeability_X       float 1
LOOKUP_TABLE default
 1.000000E-12  1.000000E-12  1.000000E-12  1.000000E-12  1.000000E-12  1.000000E-12  1.000000E-12  1.000000E-12  1.000000E-12  1.000000E-12
 1.000000E-12  1.000000E-12  1.000000E-12  1.000000E-12  1.000000E-12  1.000000E-12  1.000000E-12  1.000000E-12  1.000000E-12  1.000000E-12


SCALARS Liquid_Pressure      float 1
LOOKUP_TABLE default
 7.500296E+06  7.500281E+06  7.500266E+06  7.500250E+06  7.500235E+06  7.500220E+06  7.500205E+06  7.500190E+06  7.500175E+06  7.500159E+06
 7.500144E+06  7.500129E+06  7.500114E+06  7.500099E+06  7.500083E+06  7.500068E+06  7.500053E+06  7.500038E+06  7.500023E+06  7.500008E+06


SCALARS Temperature          float 1
LOOKUP_TABLE default
 1.500000E+02  1.499999E+02  1.499999E+02  1.499998E+02  1.499998E+02  1.499997E+02  1.499997E+02  1.499997E+02  1.499996E+02  1.499996E+02
 1.499996E+02  1.499996E+02  1.499996E+02  1.499996E+02  1.499996E+02  1.499996E+02  1.499997E+02  1.499997E+02  1.499998E+02  1.499999E+02


SCALARS pH                   float 1
LOOKUP_TABLE default
 4.958908E+00  5.122227E+00  5.242034E+00  5.335601E+00  5.412066E+00  5.476633E+00  5.532486E+00  5.581690E+00  5.625642E+00  5.665322E+00
 5.701433E+00  5.734492E+00  5.764881E+00  5.792889E+00  5.818732E+00  5.842577E+00  5.864554E+00  5.884768E+00  5.903305E+00  5.920205E+00


SCALARS Total_H+             float 1
LOOKUP_TABLE default
-4.536151E-04 -5.866941E-04 -7.185653E-04 -8.482403E-04 -9.756637E-04 -1.101018E-03 -1.224511E-03 -1.346310E-03 -1.466508E-03 -1.585119E-03
-1.702076E-03 -1.817226E-03 -1.930338E-03 -2.041108E-03 -2.149165E-03 -2.254089E-03 -2.355426E-03 -2.452708E-03 -2.545477E-03 -2.633112E-03


SCALARS Total_SiO2(aq)       float 1
LOOKUP_TABLE default
 1.405127E-02  1.404171E-02  1.403093E-02  1.401906E-02  1.400624E-02  1.399254E-02  1.397805E-02  1.396282E-02  1.394689E-02  1.393032E-02
 1.391314E-02  1.389539E-02  1.387709E-02  1.385829E-02  1.383900E-02  1.381927E-02  1.379913E-02  1.377860E-02  1.375772E-02  1.373659E-02


SCALARS Total_Al+++          float 1
LOOKUP_TABLE default
 6.015348E-05  6.015348E-05  6.015348E-05  6.015348E-05  6.015348E-05  6.015348E-05  6.015349E-05  6.015349E-05  6.015349E-05  6.015349E-05
 6.015349E-05  6.015349E-05  6.015350E-05  6.015350E-05  6.015350E-05  6.015350E-05  6.015350E-05  6.015350E-05  6.015350E-05  6.015350E-05


SCALARS Total_Ca++           float 1
LOOKUP_TABLE default
 1.342746E-04  2.008141E-04  2.667497E-04  3.315872E-04  3.952989E-04  4.579758E-04  5.197226E-04  5.806219E-04  6.407209E-04  7.000268E-04
 7.585052E-04  8.160803E-04  8.726363E-04  9.280209E-04  9.820494E-04  1.034511E-03  1.085180E-03  1.133821E-03  1.180206E-03  1.224023E-03


SCALARS Total_Cl-            float 1
LOOKUP_TABLE default
 2.513233E-02  2.513233E-02  2.513233E-02  2.513233E-02  2.513233E-02  2.513233E-02  2.513233E-02  2.513233E-02  2.513233E-02  2.513233E-02
 2.513233E-02  2.513233E-02  2.513233E-02  2.513233E-02  2.513233E-02  2.513233E-02  2.513233E-02  2.513233E-02  2.513233E-02  2.513233E-02


SCALARS Total_CO2(aq)        float 1
LOOKUP_TABLE default
 1.363097E-02  1.369751E-02  1.376345E-02  1.382829E-02  1.389200E-02  1.395468E-02  1.401642E-02  1.407732E-02  1.413742E-02  1.419673E-02
 1.425520E-02  1.431278E-02  1.436934E-02  1.442472E-02  1.447875E-02  1.453121E-02  1.458188E-02  1.463052E-02  1.467690E-02  1.472072E-02


SCALARS Total_Na+            float 1
LOOKUP_TABLE default
 3.122900E-02  3.122900E-02  3.122900E-02  3.122900E-02  3.122900E-02  3.122900E-02  3.122900E-02  3.122900E-02  3.122900E-02  3.122900E-02
 3.122900E-02  3.122900E-02  3.122900E-02  3.122900E-02  3.122900E-02  3.122900E-02  3.122900E-02  3.122900E-02  3.122900E-02  3.122900E-02


SCALARS Total_K+             float 1
LOOKUP_TABLE default
 2.655416E-03  2.655416E-03  2.655416E-03  2.655416E-03  2.655416E-03  2.655416E-03  2.655416E-03  2.655416E-03  2.655416E-03  2.655416E-03
 2.655416E-03  2.655416E-03  2.655416E-03  2.655416E-03  2.655416E-03  2.655416E-03  2.655415E-03  2.655415E-03  2.655415E-03  2.655415E-03


SCALARS Total_Mg++           float 1
LOOKUP_TABLE default
 8.216757E-07  8.216757E-07  8.216757E-07  8.216757E-07  8.216757E-07  8.216757E-07  8.216757E-07  8.216757E-07  8.216757E-07  8.216757E-07
 8.216757E-07  8.216757E-07  8.216756E-07  8.216756E-07  8.216756E-07  8.216756E-07  8.216756E-07  8.216756E-07  8.216756E-07  8.216756E-07


SCALARS Total_Fe++           float 1
LOOKUP_TABLE default
 1.251593E-06  1.251593E-06  1.251593E-06  1.251593E-06  1.251593E-06  1.251593E-06  1.251593E-06  1.251593E-06  1.251593E-06  1.251593E-06
 1.251593E-06  1.251593E-06  1.251593E-06  1.251592E-06  1.251592E-06  1.251592E-06  1.251592E-06  1.251592E-06  1.251592E-06  1.251592E-06


SCALARS Total_Cu++           float 1
LOOKUP_TABLE default
 9.952832E-11  9.952832E-11  9.952832E-11  9.952832E-11  9.952832E-11  9.952832E-11  9.952832E-11  9.952832E-11  9.952832E-11  9.952832E-11
 9.952832E-11  9.952832E-11  9.952832E-11  9.952832E-11  9.952832E-11  9.952832E-11  9.952832E-11  9.952832E-11  9.952831E-11  9.952831E-11


SCALARS Total_SO4--          float 1
LOOKUP_TABLE default
 4.376188E-03  4.376188E-03  4.376188E-03  4.376188E-03  4.376188E-03  4.376188E-03  4.376188E-03  4.376188E-03  4.376188E-03  4.376188E-03
 4.376188E-03  4.376188E-03  4.376188E-03  4.376188E-03  4.376188E-03  4.376188E-03  4.376188E-03  4.376188E-03  4.376188E-03  4.376188E-03


SCALARS Total_Tracer         float 1
LOOKUP_TABLE default
 9.952832E-11  9.952832E-11  9.952832E-11  9.952832E-11  9.952832E-11  9.952832E-11  9.952832E-11  9.952832E-11  9.952832E-11  9.952832E-11
 9.952832E-11  9.952832E-11  9.952832E-11  9.952832E-11  9.952832E-11  9.952832E-11  9.952832E-11  9.952832E-11  9.952831E-11  9.952831E-11


SCALARS Active_Gas_CO2(g)    float 1
LOOKUP_TABLE default
 0.000000E+00  0.000000E+00  0.000000E+00  0.000000E+00  0.000000E+00  0.000000E+00  0.000000E+00  0.000000E+00  0.000000E+00  0.000000E+00
 0.000000E+00  0.000000E+00  0.000000E+00  0.000000E+00  0.000000E+00  0.000000E+00  0.000000E+00  0.000000E+00  0.000000E+00  0.000000E+00


SCALARS HCO3-                float 1
LOOKUP_TABLE default
 2.765229E-04  4.010437E-04  5.261189E-04  6.497257E-04  7.714029E-04  8.911400E-04  1.009042E-03  1.125213E-03  1.239710E-03  1.352527E-03
 1.463587E-03  1.572739E-03  1.679762E-03  1.784370E-03  1.886220E-03  1.984927E-03  2.080077E-03  2.171247E-03  2.258028E-03  2.339861E-03


SCALARS H2SiO4--             float 1
LOOKUP_TABLE default
 9.949933E-13  2.110464E-12  3.663348E-12  5.634655E-12  8.009782E-12  1.077829E-11  1.393240E-11  1.746538E-11  2.136995E-11  2.563670E-11
 3.025260E-11  3.519958E-11  4.045321E-11  4.598163E-11  5.174484E-11  5.769450E-11  6.377437E-11  6.992144E-11  7.606780E-11  8.212922E-11


SCALARS H3SiO4-              float 1
LOOKUP_TABLE default
 2.202208E-06  3.205604E-06  4.220966E-06  5.231681E-06  6.233588E-06  7.226191E-06  8.209982E-06  9.185476E-06  1.015283E-05  1.111167E-05
 1.206100E-05  1.299917E-05  1.392389E-05  1.483223E-05  1.572068E-05  1.658529E-05  1.742177E-05  1.822568E-05  1.899263E-05  1.971690E-05


SCALARS Calcite_VF           float 1
LOOKUP_TABLE default
 1.201994E-02  1.241855E-02  1.268098E-02  1.287707E-02  1.303560E-02  1.317100E-02  1.329134E-02  1.340149E-02  1.350452E-02  1.360241E-02
 1.369646E-02  1.378746E-02  1.387590E-02  1.396201E-02  1.404584E-02  1.412729E-02  1.420617E-02  1.428221E-02  1.435510E-02  1.442438E-02


SCALARS SiO2(am)_VF          float 1
LOOKUP_TABLE default
 3.129421E-04  3.625757E-04  3.998077E-04  4.296838E-04  4.545513E-04  4.757070E-04  4.939483E-04  5.098035E-04  5.236424E-04  5.357363E-04
 5.462919E-04  5.554720E-04  5.634089E-04  5.702136E-04  5.759816E-04  5.807974E-04  5.847374E-04  5.878721E-04  5.902676E-04  5.919849E-04


SCALARS Calcite_Rate         float 1
LOOKUP_TABLE default
-8.612834E-05 -8.840333E-05 -8.750574E-05 -8.595735E-05 -8.437897E-05 -8.292806E-05 -8.162246E-05 -8.043250E-05 -7.931133E-05 -7.820581E-05
-7.706099E-05 -7.582231E-05 -7.443733E-05 -7.285758E-05 -7.104072E-05 -6.895307E-05 -6.657214E-05 -6.388905E-05 -6.091029E-05 -5.766674E-05


SCALARS SiO2(am)_Rate        float 1
LOOKUP_TABLE default
 1.081632E-05  1.270841E-05  1.433739E-05  1.576038E-05  1.702702E-05  1.817257E-05  1.922166E-05  2.019172E-05  2.109519E-05  2.194100E-05
 2.273544E-05  2.348289E-05  2.418618E-05  2.484700E-05  2.546615E-05  2.604374E-05  2.657944E-05  2.707268E-05  2.752282E-05  2.792846E-05


SCALARS Calcite_Area         float 1
LOOKUP_TABLE default
 2.234784E+00  3.096273E+00  3.813132E+00  4.441534E+00  5.015618E+00  5.557713E+00  6.083153E+00  6.602856E+00  7.124753E+00  7.654628E+00
 8.196589E+00  8.753339E+00  9.326318E+00  9.915763E+00  1.052074E+01  1.113916E+01  1.176784E+01  1.240258E+01  1.303834E+01  1.366807E+01


SCALARS SiO2(am)_Area        float 1
LOOKUP_TABLE default
 1.478269E+05  1.407551E+05  1.362544E+05  1.330318E+05  1.305709E+05  1.286160E+05  1.270224E+05  1.257009E+05  1.245926E+05  1.236567E+05
 1.228637E+05  1.221916E+05  1.216235E+05  1.211460E+05  1.207484E+05  1.204218E+05  1.201585E+05  1.199521E+05  1.197970E+05  1.196880E+05


SCALARS Material_ID          int 1
LOOKUP_TABLE default
  1
  1
  1
  1
  1
  1
  1
  1
  1
  1
  1
  1
  1
  1
  1
  1
  1
  1
  1
  1


