# vtk DataFile Version 2.0
PFLOTRAN output
ASCII
DATASET UNSTRUCTURED_GRID
POINTS           84 float
 0.000000E+00  0.000000E+00  0.000000E+00
 7.580000E-03  0.000000E+00  0.000000E+00
 1.516000E-02  0.000000E+00  0.000000E+00
 2.274000E-02  0.000000E+00  0.000000E+00
 3.032000E-02  0.000000E+00  0.000000E+00
 3.790000E-02  0.000000E+00  0.000000E+00
 4.548000E-02  0.000000E+00  0.000000E+00
 5.306000E-02  0.000000E+00  0.000000E+00
 6.064000E-02  0.000000E+00  0.000000E+00
 6.822000E-02  0.000000E+00  0.000000E+00
 7.580000E-02  0.000000E+00  0.000000E+00
 8.338000E-02  0.000000E+00  0.000000E+00
 9.096000E-02  0.000000E+00  0.000000E+00
 9.854000E-02  0.000000E+00  0.000000E+00
 1.061200E-01  0.000000E+00  0.000000E+00
 1.137000E-01  0.000000E+00  0.000000E+00
 1.212800E-01  0.000000E+00  0.000000E+00
 1.288600E-01  0.000000E+00  0.000000E+00
 1.364400E-01  0.000000E+00  0.000000E+00
 1.440200E-01  0.000000E+00  0.000000E+00
 1.516000E-01  0.000000E+00  0.000000E+00
 0.000000E+00  1.125000E-02  0.000000E+00
 7.580000E-03  1.125000E-02  0.000000E+00
 1.516000E-02  1.125000E-02  0.000000E+00
 2.274000E-02  1.125000E-02  0.000000E+00
 3.032000E-02  1.125000E-02  0.000000E+00
 3.790000E-02  1.125000E-02  0.000000E+00
 4.548000E-02  1.125000E-02  0.000000E+00
 5.306000E-02  1.125000E-02  0.000000E+00
 6.064000E-02  1.125000E-02  0.000000E+00
 6.822000E-02  1.125000E-02  0.000000E+00
 7.580000E-02  1.125000E-02  0.000000E+00
 8.338000E-02  1.125000E-02  0.000000E+00
 9.096000E-02  1.125000E-02  0.000000E+00
 9.854000E-02  1.125000E-02  0.000000E+00
 1.061200E-01  1.125000E-02  0.000000E+00
 1.137000E-01  1.125000E-02  0.000000E+00
 1.212800E-01  1.125000E-02  0.000000E+00
 1.288600E-01  1.125000E-02  0.000000E+00
 1.364400E-01  1.125000E-02  0.000000E+00
 1.440200E-01  1.125000E-02  0.000000E+00
 1.516000E-01  1.125000E-02  0.000000E+00
 0.000000E+00  0.000000E+00  1.125000E-02
 7.580000E-03  0.000000E+00  1.125000E-02
 1.516000E-02  0.000000E+00  1.125000E-02
 2.274000E-02  0.000000E+00  1.125000E-02
 3.032000E-02  0.000000E+00  1.125000E-02
 3.790000E-02  0.000000E+00  1.125000E-02
 4.548000E-02  0.000000E+00  1.125000E-02
 5.306000E-02  0.000000E+00  1.125000E-02
 6.064000E-02  0.000000E+00  1.125000E-02
 6.822000E-02  0.000000E+00  1.125000E-02
 7.580000E-02  0.000000E+00  1.125000E-02
 8.338000E-02  0.000000E+00  1.125000E-02
 9.096000E-02  0.000000E+00  1.125000E-02
 9.854000E-02  0.000000E+00  1.125000E-02
 1.061200E-01  0.000000E+00  1.125000E-02
 1.137000E-01  0.000000E+00  1.125000E-02
 1.212800E-01  0.000000E+00  1.125000E-02
 1.288600E-01  0.000000E+00  1.125000E-02
 1.364400E-01  0.000000E+00  1.125000E-02
 1.440200E-01  0.000000E+00  1.125000E-02
 1.516000E-01  0.000000E+00  1.125000E-02
 0.000000E+00  1.125000E-02  1.125000E-02
 7.580000E-03  1.125000E-02  1.125000E-02
 1.516000E-02  1.125000E-02  1.125000E-02
 2.274000E-02  1.125000E-02  1.125000E-02
 3.032000E-02  1.125000E-02  1.125000E-02
 3.790000E-02  1.125000E-02  1.125000E-02
 4.548000E-02  1.125000E-02  1.125000E-02
 5.306000E-02  1.125000E-02  1.125000E-02
 6.064000E-02  1.125000E-02  1.125000E-02
 6.822000E-02  1.125000E-02  1.125000E-02
 7.580000E-02  1.125000E-02  1.125000E-02
 8.338000E-02  1.125000E-02  1.125000E-02
 9.096000E-02  1.125000E-02  1.125000E-02
 9.854000E-02  1.125000E-02  1.125000E-02
 1.061200E-01  1.125000E-02  1.125000E-02
 1.137000E-01  1.125000E-02  1.125000E-02
 1.212800E-01  1.125000E-02  1.125000E-02
 1.288600E-01  1.125000E-02  1.125000E-02
 1.364400E-01  1.125000E-02  1.125000E-02
 1.440200E-01  1.125000E-02  1.125000E-02
 1.516000E-01  1.125000E-02  1.125000E-02
CELLS           20          180
8        0        1       22       21       42       43       64       63
8        1        2       23       22       43       44       65       64
8        2        3       24       23       44       45       66       65
8        3        4       25       24       45       46       67       66
8        4        5       26       25       46       47       68       67
8        5        6       27       26       47       48       69       68
8        6        7       28       27       48       49       70       69
8        7        8       29       28       49       50       71       70
8        8        9       30       29       50       51       72       71
8        9       10       31       30       51       52       73       72
8       10       11       32       31       52       53       74       73
8       11       12       33       32       53       54       75       74
8       12       13       34       33       54       55       76       75
8       13       14       35       34       55       56       77       76
8       14       15       36       35       56       57       78       77
8       15       16       37       36       57       58       79       78
8       16       17       38       37       58       59       80       79
8       17       18       39       38       59       60       81       80
8       18       19       40       39       60       61       82       81
8       19       20       41       40       61       62       83       82

CELL_TYPES           20
12
12
12
12
12
12
12
12
12
12
12
12
12
12
12
12
12
12
12
12

CELL_DATA       20
SCALARS Porosity             float 1
LOOKUP_TABLE default
 9.890058E-01  9.886542E-01  9.883784E-01  9.881495E-01  9.879530E-01  9.877799E-01  9.876246E-01  9.874828E-01  9.873518E-01  9.872292E-01
 9.871135E-01  9.870034E-01  9.868977E-01  9.867956E-01  9.866966E-01  9.865999E-01  9.865051E-01  9.864119E-01  9.863199E-01  9.862289E-01


SCALARS Permeability_X       float 1
LOOKUP_TABLE default
 1.000000E-12  1.000000E-12  1.000000E-12  1.000000E-12  1.000000E-12  1.000000E-12  1.000000E-12  1.000000E-12  1.000000E-12  1.000000E-12
 1.000000E-12  1.000000E-12  1.000000E-12  1.000000E-12  1.000000E-12  1.000000E-12  1.000000E-12  1.000000E-12  1.000000E-12  1.000000E-12


SCALARS Liquid_Pressure      float 1
LOOKUP_TABLE default
 7.500296E+06  7.500281E+06  7.500266E+06  7.500250E+06  7.500235E+06  7.500220E+06  7.500205E+06  7.500190E+06  7.500175E+06  7.500159E+06
 7.500144E+06  7.500129E+06  7.500114E+06  7.500099E+06  7.500083E+06  7.500068E+06  7.500053E+06  7.500038E+06  7.500023E+06  7.500008E+06


SCALARS Temperature          float 1
LOOKUP_TABLE default
 1.500000E+02  1.500000E+02  1.500000E+02  1.499999E+02  1.499999E+02  1.499999E+02  1.499999E+02  1.499999E+02  1.499999E+02  1.499998E+02
 1.499998E+02  1.499998E+02  1.499998E+02  1.499998E+02  1.499998E+02  1.499998E+02  1.499998E+02  1.499999E+02  1.499999E+02  1.500000E+02


SCALARS pH                   float 1
LOOKUP_TABLE default
 4.809584E+00  4.892789E+00  4.968133E+00  5.035553E+00  5.095925E+00  5.150288E+00  5.199596E+00  5.244658E+00  5.286136E+00  5.324574E+00
 5.360415E+00  5.394021E+00  5.425691E+00  5.455673E+00  5.484174E+00  5.511368E+00  5.537403E+00  5.562403E+00  5.586473E+00  5.609644E+00


SCALARS Total_H+             float 1
LOOKUP_TABLE default
-3.655210E-04 -4.113605E-04 -4.599758E-04 -5.103808E-04 -5.620230E-04 -6.145863E-04 -6.678918E-04 -7.218429E-04 -7.763946E-04 -8.315349E-04
-8.872731E-04 -9.436329E-04 -1.000647E-03 -1.058354E-03 -1.116796E-03 -1.176017E-03 -1.236061E-03 -1.296971E-03 -1.358786E-03 -1.421375E-03


SCALARS Total_SiO2(aq)       float 1
LOOKUP_TABLE default
 1.405382E-02  1.404789E-02  1.404156E-02  1.403483E-02  1.402771E-02  1.402022E-02  1.401235E-02  1.400414E-02  1.399558E-02  1.398669E-02
 1.397749E-02  1.396797E-02  1.395815E-02  1.394803E-02  1.393762E-02  1.392693E-02  1.391596E-02  1.390470E-02  1.389318E-02  1.388142E-02


SCALARS Total_Al+++          float 1
LOOKUP_TABLE default
 6.015348E-05  6.015348E-05  6.015348E-05  6.015348E-05  6.015348E-05  6.015348E-05  6.015348E-05  6.015348E-05  6.015348E-05  6.015348E-05
 6.015348E-05  6.015348E-05  6.015348E-05  6.015348E-05  6.015348E-05  6.015348E-05  6.015349E-05  6.015349E-05  6.015349E-05  6.015348E-05


SCALARS Total_Ca++           float 1
LOOKUP_TABLE default
 9.022759E-05  1.131473E-04  1.374550E-04  1.626575E-04  1.884786E-04  2.147602E-04  2.414130E-04  2.683885E-04  2.956644E-04  3.232345E-04
 3.511036E-04  3.792835E-04  4.077905E-04  4.366440E-04  4.658651E-04  4.954757E-04  5.254977E-04  5.559525E-04  5.868599E-04  6.181546E-04


SCALARS Total_Cl-            float 1
LOOKUP_TABLE default
 2.513233E-02  2.513233E-02  2.513233E-02  2.513233E-02  2.513233E-02  2.513233E-02  2.513233E-02  2.513233E-02  2.513233E-02  2.513233E-02
 2.513233E-02  2.513233E-02  2.513233E-02  2.513233E-02  2.513233E-02  2.513233E-02  2.513233E-02  2.513233E-02  2.513233E-02  2.513233E-02


SCALARS Total_CO2(aq)        float 1
LOOKUP_TABLE default
 1.358693E-02  1.360985E-02  1.363415E-02  1.365936E-02  1.368518E-02  1.371146E-02  1.373811E-02  1.376509E-02  1.379236E-02  1.381993E-02
 1.384780E-02  1.387598E-02  1.390449E-02  1.393334E-02  1.396256E-02  1.399218E-02  1.402220E-02  1.405265E-02  1.408356E-02  1.411485E-02


SCALARS Total_Na+            float 1
LOOKUP_TABLE default
 3.122900E-02  3.122900E-02  3.122900E-02  3.122900E-02  3.122900E-02  3.122900E-02  3.122900E-02  3.122900E-02  3.122900E-02  3.122900E-02
 3.122900E-02  3.122900E-02  3.122900E-02  3.122900E-02  3.122900E-02  3.122900E-02  3.122900E-02  3.122900E-02  3.122900E-02  3.122900E-02


SCALARS Total_K+             float 1
LOOKUP_TABLE default
 2.655416E-03  2.655416E-03  2.655416E-03  2.655416E-03  2.655416E-03  2.655416E-03  2.655416E-03  2.655416E-03  2.655416E-03  2.655416E-03
 2.655416E-03  2.655416E-03  2.655416E-03  2.655416E-03  2.655416E-03  2.655416E-03  2.655416E-03  2.655416E-03  2.655415E-03  2.655415E-03


SCALARS Total_Mg++           float 1
LOOKUP_TABLE default
 8.216757E-07  8.216757E-07  8.216757E-07  8.216757E-07  8.216757E-07  8.216757E-07  8.216757E-07  8.216757E-07  8.216757E-07  8.216757E-07
 8.216757E-07  8.216757E-07  8.216757E-07  8.216756E-07  8.216756E-07  8.216756E-07  8.216756E-07  8.216756E-07  8.216756E-07  8.216756E-07


SCALARS Total_Fe++           float 1
LOOKUP_TABLE default
 1.251593E-06  1.251593E-06  1.251593E-06  1.251593E-06  1.251593E-06  1.251593E-06  1.251593E-06  1.251593E-06  1.251593E-06  1.251593E-06
 1.251593E-06  1.251593E-06  1.251593E-06  1.251593E-06  1.251592E-06  1.251592E-06  1.251592E-06  1.251592E-06  1.251592E-06  1.251592E-06


SCALARS Total_Cu++           float 1
LOOKUP_TABLE default
 9.952832E-11  9.952832E-11  9.952832E-11  9.952832E-11  9.952832E-11  9.952832E-11  9.952832E-11  9.952832E-11  9.952832E-11  9.952832E-11
 9.952832E-11  9.952832E-11  9.952832E-11  9.952832E-11  9.952832E-11  9.952832E-11  9.952832E-11  9.952832E-11  9.952832E-11  9.952832E-11


SCALARS Total_SO4--          float 1
LOOKUP_TABLE default
 4.376188E-03  4.376188E-03  4.376188E-03  4.376188E-03  4.376188E-03  4.376188E-03  4.376188E-03  4.376188E-03  4.376188E-03  4.376188E-03
 4.376188E-03  4.376188E-03  4.376188E-03  4.376188E-03  4.376188E-03  4.376188E-03  4.376188E-03  4.376188E-03  4.376188E-03  4.376188E-03


SCALARS Total_Tracer         float 1
LOOKUP_TABLE default
 9.952832E-11  9.952832E-11  9.952832E-11  9.952832E-11  9.952832E-11  9.952832E-11  9.952832E-11  9.952832E-11  9.952832E-11  9.952832E-11
 9.952832E-11  9.952832E-11  9.952832E-11  9.952832E-11  9.952832E-11  9.952832E-11  9.952832E-11  9.952832E-11  9.952832E-11  9.952832E-11


SCALARS Active_Gas_CO2(g)    float 1
LOOKUP_TABLE default
 0.000000E+00  0.000000E+00  0.000000E+00  0.000000E+00  0.000000E+00  0.000000E+00  0.000000E+00  0.000000E+00  0.000000E+00  0.000000E+00
 0.000000E+00  0.000000E+00  0.000000E+00  0.000000E+00  0.000000E+00  0.000000E+00  0.000000E+00  0.000000E+00  0.000000E+00  0.000000E+00


SCALARS HCO3-                float 1
LOOKUP_TABLE default
 1.965837E-04  2.377784E-04  2.824028E-04  3.293025E-04  3.777806E-04  4.274157E-04  4.779539E-04  5.292455E-04  5.812067E-04  6.337960E-04
 6.870003E-04  7.408249E-04  7.952876E-04  8.504141E-04  9.062355E-04  9.627854E-04  1.020098E-03  1.078209E-03  1.137148E-03  1.196785E-03


SCALARS H2SiO4--             float 1
LOOKUP_TABLE default
 5.001675E-13  7.335161E-13  1.037472E-12  1.414775E-12  1.867643E-12  2.398139E-12  3.008399E-12  3.700777E-12  4.477922E-12  5.342827E-12
 6.298861E-12  7.349788E-12  8.499781E-12  9.753423E-12  1.111572E-11  1.259208E-11  1.418832E-11  1.591065E-11  1.776558E-11  1.975453E-11


SCALARS H3SiO4-              float 1
LOOKUP_TABLE default
 1.561692E-06  1.890713E-06  2.247933E-06  2.624251E-06  3.014170E-06  3.414366E-06  3.822841E-06  4.238423E-06  4.660468E-06  5.088671E-06
 5.522959E-06  5.963409E-06  6.410207E-06  6.863606E-06  7.323908E-06  7.791443E-06  8.266555E-06  8.749586E-06  9.240866E-06  9.739376E-06


SCALARS Calcite_VF           float 1
LOOKUP_TABLE default
 1.044574E-02  1.072108E-02  1.093464E-02  1.111055E-02  1.126088E-02  1.139288E-02  1.151135E-02  1.161963E-02  1.172012E-02  1.181461E-02
 1.190445E-02  1.199073E-02  1.207427E-02  1.215575E-02  1.223574E-02  1.231468E-02  1.239296E-02  1.247090E-02  1.254878E-02  1.262663E-02


SCALARS SiO2(am)_VF          float 1
LOOKUP_TABLE default
 5.398360E-04  6.149903E-04  6.766748E-04  7.293531E-04  7.754320E-04  8.163998E-04  8.532522E-04  8.866922E-04  9.172360E-04  9.452746E-04
 9.711114E-04  9.949868E-04  1.017095E-03  1.037593E-03  1.056614E-03  1.074266E-03  1.090642E-03  1.105823E-03  1.119874E-03  1.132825E-03


SCALARS Calcite_Rate         float 1
LOOKUP_TABLE default
-2.740909E-05 -3.048927E-05 -3.232175E-05 -3.349678E-05 -3.430345E-05 -3.489962E-05 -3.537656E-05 -3.578925E-05 -3.617197E-05 -3.654662E-05
-3.692747E-05 -3.732391E-05 -3.774207E-05 -3.818587E-05 -3.865763E-05 -3.915842E-05 -3.968830E-05 -4.024642E-05 -4.083103E-05 -4.143825E-05


SCALARS SiO2(am)_Rate        float 1
LOOKUP_TABLE default
 7.412322E-06  7.896895E-06  8.423769E-06  8.953850E-06  9.472370E-06  9.974081E-06  1.045777E-05  1.092399E-05  1.137397E-05  1.180923E-05
 1.223129E-05  1.264164E-05  1.304162E-05  1.343247E-05  1.381529E-05  1.419107E-05  1.456070E-05  1.492493E-05  1.528443E-05  1.563884E-05


SCALARS Calcite_Area         float 1
LOOKUP_TABLE default
 5.392020E-01  7.000454E-01  8.530554E-01  1.000902E+00  1.145015E+00  1.286631E+00  1.426922E+00  1.567011E+00  1.707966E+00  1.850816E+00
 1.996553E+00  2.146150E+00  2.300571E+00  2.460781E+00  2.627765E+00  2.802533E+00  2.986131E+00  3.179653E+00  3.384245E+00  3.600564E+00


SCALARS SiO2(am)_Area        float 1
LOOKUP_TABLE default
 1.229898E+05  1.177497E+05  1.140524E+05  1.112357E+05  1.089865E+05  1.071321E+05  1.055675E+05  1.042240E+05  1.030549E+05  1.020267E+05
 1.011148E+05  1.003007E+05  9.956984E+04  9.891106E+04  9.831528E+04  9.777519E+04  9.728477E+04  9.683904E+04  9.643384E+04  9.606651E+04


SCALARS Material_ID          int 1
LOOKUP_TABLE default
  1
  1
  1
  1
  1
  1
  1
  1
  1
  1
  1
  1
  1
  1
  1
  1
  1
  1
  1
  1


