# vtk DataFile Version 2.0
PFLOTRAN output
ASCII
DATASET UNSTRUCTURED_GRID
POINTS           84 float
 0.000000E+00  0.000000E+00  0.000000E+00
 7.580000E-03  0.000000E+00  0.000000E+00
 1.516000E-02  0.000000E+00  0.000000E+00
 2.274000E-02  0.000000E+00  0.000000E+00
 3.032000E-02  0.000000E+00  0.000000E+00
 3.790000E-02  0.000000E+00  0.000000E+00
 4.548000E-02  0.000000E+00  0.000000E+00
 5.306000E-02  0.000000E+00  0.000000E+00
 6.064000E-02  0.000000E+00  0.000000E+00
 6.822000E-02  0.000000E+00  0.000000E+00
 7.580000E-02  0.000000E+00  0.000000E+00
 8.338000E-02  0.000000E+00  0.000000E+00
 9.096000E-02  0.000000E+00  0.000000E+00
 9.854000E-02  0.000000E+00  0.000000E+00
 1.061200E-01  0.000000E+00  0.000000E+00
 1.137000E-01  0.000000E+00  0.000000E+00
 1.212800E-01  0.000000E+00  0.000000E+00
 1.288600E-01  0.000000E+00  0.000000E+00
 1.364400E-01  0.000000E+00  0.000000E+00
 1.440200E-01  0.000000E+00  0.000000E+00
 1.516000E-01  0.000000E+00  0.000000E+00
 0.000000E+00  1.125000E-02  0.000000E+00
 7.580000E-03  1.125000E-02  0.000000E+00
 1.516000E-02  1.125000E-02  0.000000E+00
 2.274000E-02  1.125000E-02  0.000000E+00
 3.032000E-02  1.125000E-02  0.000000E+00
 3.790000E-02  1.125000E-02  0.000000E+00
 4.548000E-02  1.125000E-02  0.000000E+00
 5.306000E-02  1.125000E-02  0.000000E+00
 6.064000E-02  1.125000E-02  0.000000E+00
 6.822000E-02  1.125000E-02  0.000000E+00
 7.580000E-02  1.125000E-02  0.000000E+00
 8.338000E-02  1.125000E-02  0.000000E+00
 9.096000E-02  1.125000E-02  0.000000E+00
 9.854000E-02  1.125000E-02  0.000000E+00
 1.061200E-01  1.125000E-02  0.000000E+00
 1.137000E-01  1.125000E-02  0.000000E+00
 1.212800E-01  1.125000E-02  0.000000E+00
 1.288600E-01  1.125000E-02  0.000000E+00
 1.364400E-01  1.125000E-02  0.000000E+00
 1.440200E-01  1.125000E-02  0.000000E+00
 1.516000E-01  1.125000E-02  0.000000E+00
 0.000000E+00  0.000000E+00  1.125000E-02
 7.580000E-03  0.000000E+00  1.125000E-02
 1.516000E-02  0.000000E+00  1.125000E-02
 2.274000E-02  0.000000E+00  1.125000E-02
 3.032000E-02  0.000000E+00  1.125000E-02
 3.790000E-02  0.000000E+00  1.125000E-02
 4.548000E-02  0.000000E+00  1.125000E-02
 5.306000E-02  0.000000E+00  1.125000E-02
 6.064000E-02  0.000000E+00  1.125000E-02
 6.822000E-02  0.000000E+00  1.125000E-02
 7.580000E-02  0.000000E+00  1.125000E-02
 8.338000E-02  0.000000E+00  1.125000E-02
 9.096000E-02  0.000000E+00  1.125000E-02
 9.854000E-02  0.000000E+00  1.125000E-02
 1.061200E-01  0.000000E+00  1.125000E-02
 1.137000E-01  0.000000E+00  1.125000E-02
 1.212800E-01  0.000000E+00  1.125000E-02
 1.288600E-01  0.000000E+00  1.125000E-02
 1.364400E-01  0.000000E+00  1.125000E-02
 1.440200E-01  0.000000E+00  1.125000E-02
 1.516000E-01  0.000000E+00  1.125000E-02
 0.000000E+00  1.125000E-02  1.125000E-02
 7.580000E-03  1.125000E-02  1.125000E-02
 1.516000E-02  1.125000E-02  1.125000E-02
 2.274000E-02  1.125000E-02  1.125000E-02
 3.032000E-02  1.125000E-02  1.125000E-02
 3.790000E-02  1.125000E-02  1.125000E-02
 4.548000E-02  1.125000E-02  1.125000E-02
 5.306000E-02  1.125000E-02  1.125000E-02
 6.064000E-02  1.125000E-02  1.125000E-02
 6.822000E-02  1.125000E-02  1.125000E-02
 7.580000E-02  1.125000E-02  1.125000E-02
 8.338000E-02  1.125000E-02  1.125000E-02
 9.096000E-02  1.125000E-02  1.125000E-02
 9.854000E-02  1.125000E-02  1.125000E-02
 1.061200E-01  1.125000E-02  1.125000E-02
 1.137000E-01  1.125000E-02  1.125000E-02
 1.212800E-01  1.125000E-02  1.125000E-02
 1.288600E-01  1.125000E-02  1.125000E-02
 1.364400E-01  1.125000E-02  1.125000E-02
 1.440200E-01  1.125000E-02  1.125000E-02
 1.516000E-01  1.125000E-02  1.125000E-02
CELLS           20          180
8        0        1       22       21       42       43       64       63
8        1        2       23       22       43       44       65       64
8        2        3       24       23       44       45       66       65
8        3        4       25       24       45       46       67       66
8        4        5       26       25       46       47       68       67
8        5        6       27       26       47       48       69       68
8        6        7       28       27       48       49       70       69
8        7        8       29       28       49       50       71       70
8        8        9       30       29       50       51       72       71
8        9       10       31       30       51       52       73       72
8       10       11       32       31       52       53       74       73
8       11       12       33       32       53       54       75       74
8       12       13       34       33       54       55       76       75
8       13       14       35       34       55       56       77       76
8       14       15       36       35       56       57       78       77
8       15       16       37       36       57       58       79       78
8       16       17       38       37       58       59       80       79
8       17       18       39       38       59       60       81       80
8       18       19       40       39       60       61       82       81
8       19       20       41       40       61       62       83       82

CELL_TYPES           20
12
12
12
12
12
12
12
12
12
12
12
12
12
12
12
12
12
12
12
12

CELL_DATA       20
SCALARS Porosity             float 1
LOOKUP_TABLE default
 9.892028E-01  9.888771E-01  9.886156E-01  9.883948E-01  9.882030E-01  9.880326E-01  9.878788E-01  9.877380E-01  9.876076E-01  9.874857E-01
 9.873707E-01  9.872614E-01  9.871568E-01  9.870561E-01  9.869588E-01  9.868641E-01  9.867717E-01  9.866811E-01  9.865920E-01  9.865044E-01


SCALARS Permeability_X       float 1
LOOKUP_TABLE default
 1.000000E-12  1.000000E-12  1.000000E-12  1.000000E-12  1.000000E-12  1.000000E-12  1.000000E-12  1.000000E-12  1.000000E-12  1.000000E-12
 1.000000E-12  1.000000E-12  1.000000E-12  1.000000E-12  1.000000E-12  1.000000E-12  1.000000E-12  1.000000E-12  1.000000E-12  1.000000E-12


SCALARS Liquid_Pressure      float 1
LOOKUP_TABLE default
 7.500296E+06  7.500281E+06  7.500266E+06  7.500250E+06  7.500235E+06  7.500220E+06  7.500205E+06  7.500190E+06  7.500175E+06  7.500159E+06
 7.500144E+06  7.500129E+06  7.500114E+06  7.500099E+06  7.500083E+06  7.500068E+06  7.500053E+06  7.500038E+06  7.500023E+06  7.500008E+06


SCALARS Temperature          float 1
LOOKUP_TABLE default
 1.500000E+02  1.500000E+02  1.500000E+02  1.500000E+02  1.499999E+02  1.499999E+02  1.499999E+02  1.499999E+02  1.499999E+02  1.499999E+02
 1.499999E+02  1.499999E+02  1.499999E+02  1.499999E+02  1.499999E+02  1.499999E+02  1.499999E+02  1.499999E+02  1.499999E+02  1.500000E+02


SCALARS pH                   float 1
LOOKUP_TABLE default
 4.793511E+00  4.863643E+00  4.929159E+00  4.989326E+00  5.044320E+00  5.094636E+00  5.140841E+00  5.183474E+00  5.223014E+00  5.259873E+00
 5.294403E+00  5.326899E+00  5.357614E+00  5.386761E+00  5.414522E+00  5.441053E+00  5.466487E+00  5.490941E+00  5.514515E+00  5.537236E+00


SCALARS Total_H+             float 1
LOOKUP_TABLE default
-3.574814E-04 -3.944480E-04 -4.338976E-04 -4.750618E-04 -5.174748E-04 -5.608484E-04 -6.050035E-04 -6.498312E-04 -6.952682E-04 -7.412827E-04
-7.878637E-04 -8.350157E-04 -8.827537E-04 -9.311004E-04 -9.800844E-04 -1.029738E-03 -1.080098E-03 -1.131201E-03 -1.183086E-03 -1.235652E-03


SCALARS Total_SiO2(aq)       float 1
LOOKUP_TABLE default
 1.405412E-02  1.404859E-02  1.404276E-02  1.403661E-02  1.403015E-02  1.402338E-02  1.401631E-02  1.400894E-02  1.400129E-02  1.399336E-02
 1.398515E-02  1.397668E-02  1.396795E-02  1.395897E-02  1.394974E-02  1.394026E-02  1.393054E-02  1.392058E-02  1.391038E-02  1.389998E-02


SCALARS Total_Al+++          float 1
LOOKUP_TABLE default
 6.015348E-05  6.015348E-05  6.015348E-05  6.015348E-05  6.015348E-05  6.015348E-05  6.015348E-05  6.015348E-05  6.015348E-05  6.015348E-05
 6.015348E-05  6.015348E-05  6.015348E-05  6.015348E-05  6.015348E-05  6.015348E-05  6.015348E-05  6.015348E-05  6.015348E-05  6.015348E-05


SCALARS Total_Ca++           float 1
LOOKUP_TABLE default
 8.620778E-05  1.046911E-04  1.244159E-04  1.449980E-04  1.662045E-04  1.878913E-04  2.099688E-04  2.323827E-04  2.551012E-04  2.781084E-04
 3.013989E-04  3.249749E-04  3.488439E-04  3.730173E-04  3.975093E-04  4.223362E-04  4.475160E-04  4.730674E-04  4.990098E-04  5.252931E-04


SCALARS Total_Cl-            float 1
LOOKUP_TABLE default
 2.513233E-02  2.513233E-02  2.513233E-02  2.513233E-02  2.513233E-02  2.513233E-02  2.513233E-02  2.513233E-02  2.513233E-02  2.513233E-02
 2.513233E-02  2.513233E-02  2.513233E-02  2.513233E-02  2.513233E-02  2.513233E-02  2.513233E-02  2.513233E-02  2.513233E-02  2.513233E-02


SCALARS Total_CO2(aq)        float 1
LOOKUP_TABLE default
 1.358291E-02  1.360139E-02  1.362112E-02  1.364170E-02  1.366290E-02  1.368459E-02  1.370667E-02  1.372908E-02  1.375180E-02  1.377481E-02
 1.379810E-02  1.382167E-02  1.384554E-02  1.386972E-02  1.389421E-02  1.391904E-02  1.394422E-02  1.396977E-02  1.399571E-02  1.402199E-02


SCALARS Total_Na+            float 1
LOOKUP_TABLE default
 3.122900E-02  3.122900E-02  3.122900E-02  3.122900E-02  3.122900E-02  3.122900E-02  3.122900E-02  3.122900E-02  3.122900E-02  3.122900E-02
 3.122900E-02  3.122900E-02  3.122900E-02  3.122900E-02  3.122900E-02  3.122900E-02  3.122900E-02  3.122900E-02  3.122900E-02  3.122900E-02


SCALARS Total_K+             float 1
LOOKUP_TABLE default
 2.655416E-03  2.655416E-03  2.655416E-03  2.655416E-03  2.655416E-03  2.655416E-03  2.655416E-03  2.655416E-03  2.655416E-03  2.655416E-03
 2.655416E-03  2.655416E-03  2.655416E-03  2.655416E-03  2.655416E-03  2.655416E-03  2.655416E-03  2.655416E-03  2.655416E-03  2.655415E-03


SCALARS Total_Mg++           float 1
LOOKUP_TABLE default
 8.216757E-07  8.216757E-07  8.216757E-07  8.216757E-07  8.216757E-07  8.216757E-07  8.216757E-07  8.216757E-07  8.216757E-07  8.216757E-07
 8.216757E-07  8.216757E-07  8.216757E-07  8.216756E-07  8.216756E-07  8.216756E-07  8.216756E-07  8.216756E-07  8.216756E-07  8.216756E-07


SCALARS Total_Fe++           float 1
LOOKUP_TABLE default
 1.251593E-06  1.251593E-06  1.251593E-06  1.251593E-06  1.251593E-06  1.251593E-06  1.251593E-06  1.251593E-06  1.251593E-06  1.251593E-06
 1.251593E-06  1.251593E-06  1.251593E-06  1.251593E-06  1.251593E-06  1.251592E-06  1.251592E-06  1.251592E-06  1.251592E-06  1.251592E-06


SCALARS Total_Cu++           float 1
LOOKUP_TABLE default
 9.952832E-11  9.952832E-11  9.952832E-11  9.952832E-11  9.952832E-11  9.952832E-11  9.952832E-11  9.952832E-11  9.952832E-11  9.952832E-11
 9.952832E-11  9.952832E-11  9.952832E-11  9.952832E-11  9.952832E-11  9.952832E-11  9.952832E-11  9.952832E-11  9.952832E-11  9.952832E-11


SCALARS Total_SO4--          float 1
LOOKUP_TABLE default
 4.376188E-03  4.376188E-03  4.376188E-03  4.376188E-03  4.376188E-03  4.376188E-03  4.376188E-03  4.376188E-03  4.376188E-03  4.376188E-03
 4.376188E-03  4.376188E-03  4.376188E-03  4.376188E-03  4.376188E-03  4.376188E-03  4.376188E-03  4.376188E-03  4.376188E-03  4.376188E-03


SCALARS Total_Tracer         float 1
LOOKUP_TABLE default
 9.952832E-11  9.952832E-11  9.952832E-11  9.952832E-11  9.952832E-11  9.952832E-11  9.952832E-11  9.952832E-11  9.952832E-11  9.952832E-11
 9.952832E-11  9.952832E-11  9.952832E-11  9.952832E-11  9.952832E-11  9.952832E-11  9.952832E-11  9.952832E-11  9.952832E-11  9.952832E-11


SCALARS Active_Gas_CO2(g)    float 1
LOOKUP_TABLE default
 0.000000E+00  0.000000E+00  0.000000E+00  0.000000E+00  0.000000E+00  0.000000E+00  0.000000E+00  0.000000E+00  0.000000E+00  0.000000E+00
 0.000000E+00  0.000000E+00  0.000000E+00  0.000000E+00  0.000000E+00  0.000000E+00  0.000000E+00  0.000000E+00  0.000000E+00  0.000000E+00


SCALARS HCO3-                float 1
LOOKUP_TABLE default
 1.894841E-04  2.224565E-04  2.583723E-04  2.963854E-04  3.359410E-04  3.766753E-04  4.183509E-04  4.608141E-04  5.039682E-04  5.477550E-04
 5.921433E-04  6.371208E-04  6.826890E-04  7.288591E-04  7.756496E-04  8.230844E-04  8.711909E-04  9.199994E-04  9.695417E-04  1.019717E-03


SCALARS H2SiO4--             float 1
LOOKUP_TABLE default
 4.644820E-13  6.413796E-13  8.670132E-13  1.143493E-12  1.472609E-12  1.856006E-12  2.295313E-12  2.792246E-12  3.348668E-12  3.966632E-12
 4.648413E-12  5.396529E-12  6.213760E-12  7.103167E-12  8.068101E-12  9.112219E-12  1.023949E-11  1.145423E-11  1.276105E-11  1.416109E-11


SCALARS H3SiO4-              float 1
LOOKUP_TABLE default
 1.504981E-06  1.768067E-06  2.055141E-06  2.359537E-06  2.676880E-06  3.004306E-06  3.339945E-06  3.682593E-06  4.031497E-06  4.386214E-06
 4.746515E-06  5.112328E-06  5.483692E-06  5.860727E-06  6.243619E-06  6.632595E-06  7.027922E-06  7.429890E-06  7.838807E-06  8.253888E-06


SCALARS Calcite_VF           float 1
LOOKUP_TABLE default
 1.019215E-02  1.043852E-02  1.063406E-02  1.079797E-02  1.093980E-02  1.106541E-02  1.117873E-02  1.128257E-02  1.137901E-02  1.146961E-02
 1.155559E-02  1.163790E-02  1.171732E-02  1.179448E-02  1.186989E-02  1.194400E-02  1.201717E-02  1.208972E-02  1.216193E-02  1.223385E-02


SCALARS SiO2(am)_VF          float 1
LOOKUP_TABLE default
 5.984275E-04  6.769233E-04  7.423355E-04  7.988261E-04  8.486775E-04  8.933267E-04  9.337509E-04  9.706505E-04  1.004546E-03  1.035836E-03
 1.064833E-03  1.091786E-03  1.116899E-03  1.140336E-03  1.162238E-03  1.182721E-03  1.201883E-03  1.219810E-03  1.236575E-03  1.252204E-03


SCALARS Calcite_Rate         float 1
LOOKUP_TABLE default
-2.204764E-05 -2.459134E-05 -2.623374E-05 -2.736368E-05 -2.818313E-05 -2.881037E-05 -2.931832E-05 -2.975358E-05 -3.014677E-05 -3.051853E-05
-3.088307E-05 -3.125036E-05 -3.162755E-05 -3.201979E-05 -3.243084E-05 -3.286345E-05 -3.331961E-05 -3.380070E-05 -3.430758E-05 -3.483949E-05


SCALARS SiO2(am)_Rate        float 1
LOOKUP_TABLE default
 7.012622E-06  7.363055E-06  7.764052E-06  8.180743E-06  8.597733E-06  9.008009E-06  9.408553E-06  9.798343E-06  1.017736E-05  1.054609E-05
 1.090526E-05  1.125569E-05  1.159820E-05  1.193362E-05  1.226273E-05  1.258626E-05  1.290487E-05  1.321919E-05  1.352978E-05  1.383635E-05


SCALARS Calcite_Area         float 1
LOOKUP_TABLE default
 4.209382E-01  5.349153E-01  6.442875E-01  7.509764E-01  8.557982E-01  9.593945E-01  1.062381E+00  1.165369E+00  1.268962E+00  1.373758E+00
 1.480349E+00  1.589322E+00  1.701269E+00  1.816786E+00  1.936485E+00  2.060997E+00  2.190979E+00  2.327121E+00  2.470153E+00  2.620460E+00


SCALARS SiO2(am)_Area        float 1
LOOKUP_TABLE default
 1.188121E+05  1.140197E+05  1.105624E+05  1.078897E+05  1.057332E+05  1.039410E+05  1.024188E+05  1.011044E+05  9.995454E+04  9.893829E+04
 9.803255E+04  9.721979E+04  9.648639E+04  9.582159E+04  9.521672E+04  9.466476E+04  9.415989E+04  9.369731E+04  9.327297E+04  9.288436E+04


SCALARS Material_ID          int 1
LOOKUP_TABLE default
  1
  1
  1
  1
  1
  1
  1
  1
  1
  1
  1
  1
  1
  1
  1
  1
  1
  1
  1
  1


