# vtk DataFile Version 2.0
PFLOTRAN output
ASCII
DATASET UNSTRUCTURED_GRID
POINTS           84 float
 0.000000E+00  0.000000E+00  0.000000E+00
 7.580000E-03  0.000000E+00  0.000000E+00
 1.516000E-02  0.000000E+00  0.000000E+00
 2.274000E-02  0.000000E+00  0.000000E+00
 3.032000E-02  0.000000E+00  0.000000E+00
 3.790000E-02  0.000000E+00  0.000000E+00
 4.548000E-02  0.000000E+00  0.000000E+00
 5.306000E-02  0.000000E+00  0.000000E+00
 6.064000E-02  0.000000E+00  0.000000E+00
 6.822000E-02  0.000000E+00  0.000000E+00
 7.580000E-02  0.000000E+00  0.000000E+00
 8.338000E-02  0.000000E+00  0.000000E+00
 9.096000E-02  0.000000E+00  0.000000E+00
 9.854000E-02  0.000000E+00  0.000000E+00
 1.061200E-01  0.000000E+00  0.000000E+00
 1.137000E-01  0.000000E+00  0.000000E+00
 1.212800E-01  0.000000E+00  0.000000E+00
 1.288600E-01  0.000000E+00  0.000000E+00
 1.364400E-01  0.000000E+00  0.000000E+00
 1.440200E-01  0.000000E+00  0.000000E+00
 1.516000E-01  0.000000E+00  0.000000E+00
 0.000000E+00  1.125000E-02  0.000000E+00
 7.580000E-03  1.125000E-02  0.000000E+00
 1.516000E-02  1.125000E-02  0.000000E+00
 2.274000E-02  1.125000E-02  0.000000E+00
 3.032000E-02  1.125000E-02  0.000000E+00
 3.790000E-02  1.125000E-02  0.000000E+00
 4.548000E-02  1.125000E-02  0.000000E+00
 5.306000E-02  1.125000E-02  0.000000E+00
 6.064000E-02  1.125000E-02  0.000000E+00
 6.822000E-02  1.125000E-02  0.000000E+00
 7.580000E-02  1.125000E-02  0.000000E+00
 8.338000E-02  1.125000E-02  0.000000E+00
 9.096000E-02  1.125000E-02  0.000000E+00
 9.854000E-02  1.125000E-02  0.000000E+00
 1.061200E-01  1.125000E-02  0.000000E+00
 1.137000E-01  1.125000E-02  0.000000E+00
 1.212800E-01  1.125000E-02  0.000000E+00
 1.288600E-01  1.125000E-02  0.000000E+00
 1.364400E-01  1.125000E-02  0.000000E+00
 1.440200E-01  1.125000E-02  0.000000E+00
 1.516000E-01  1.125000E-02  0.000000E+00
 0.000000E+00  0.000000E+00  1.125000E-02
 7.580000E-03  0.000000E+00  1.125000E-02
 1.516000E-02  0.000000E+00  1.125000E-02
 2.274000E-02  0.000000E+00  1.125000E-02
 3.032000E-02  0.000000E+00  1.125000E-02
 3.790000E-02  0.000000E+00  1.125000E-02
 4.548000E-02  0.000000E+00  1.125000E-02
 5.306000E-02  0.000000E+00  1.125000E-02
 6.064000E-02  0.000000E+00  1.125000E-02
 6.822000E-02  0.000000E+00  1.125000E-02
 7.580000E-02  0.000000E+00  1.125000E-02
 8.338000E-02  0.000000E+00  1.125000E-02
 9.096000E-02  0.000000E+00  1.125000E-02
 9.854000E-02  0.000000E+00  1.125000E-02
 1.061200E-01  0.000000E+00  1.125000E-02
 1.137000E-01  0.000000E+00  1.125000E-02
 1.212800E-01  0.000000E+00  1.125000E-02
 1.288600E-01  0.000000E+00  1.125000E-02
 1.364400E-01  0.000000E+00  1.125000E-02
 1.440200E-01  0.000000E+00  1.125000E-02
 1.516000E-01  0.000000E+00  1.125000E-02
 0.000000E+00  1.125000E-02  1.125000E-02
 7.580000E-03  1.125000E-02  1.125000E-02
 1.516000E-02  1.125000E-02  1.125000E-02
 2.274000E-02  1.125000E-02  1.125000E-02
 3.032000E-02  1.125000E-02  1.125000E-02
 3.790000E-02  1.125000E-02  1.125000E-02
 4.548000E-02  1.125000E-02  1.125000E-02
 5.306000E-02  1.125000E-02  1.125000E-02
 6.064000E-02  1.125000E-02  1.125000E-02
 6.822000E-02  1.125000E-02  1.125000E-02
 7.580000E-02  1.125000E-02  1.125000E-02
 8.338000E-02  1.125000E-02  1.125000E-02
 9.096000E-02  1.125000E-02  1.125000E-02
 9.854000E-02  1.125000E-02  1.125000E-02
 1.061200E-01  1.125000E-02  1.125000E-02
 1.137000E-01  1.125000E-02  1.125000E-02
 1.212800E-01  1.125000E-02  1.125000E-02
 1.288600E-01  1.125000E-02  1.125000E-02
 1.364400E-01  1.125000E-02  1.125000E-02
 1.440200E-01  1.125000E-02  1.125000E-02
 1.516000E-01  1.125000E-02  1.125000E-02
CELLS           20          180
8        0        1       22       21       42       43       64       63
8        1        2       23       22       43       44       65       64
8        2        3       24       23       44       45       66       65
8        3        4       25       24       45       46       67       66
8        4        5       26       25       46       47       68       67
8        5        6       27       26       47       48       69       68
8        6        7       28       27       48       49       70       69
8        7        8       29       28       49       50       71       70
8        8        9       30       29       50       51       72       71
8        9       10       31       30       51       52       73       72
8       10       11       32       31       52       53       74       73
8       11       12       33       32       53       54       75       74
8       12       13       34       33       54       55       76       75
8       13       14       35       34       55       56       77       76
8       14       15       36       35       56       57       78       77
8       15       16       37       36       57       58       79       78
8       16       17       38       37       58       59       80       79
8       17       18       39       38       59       60       81       80
8       18       19       40       39       60       61       82       81
8       19       20       41       40       61       62       83       82

CELL_TYPES           20
12
12
12
12
12
12
12
12
12
12
12
12
12
12
12
12
12
12
12
12

CELL_DATA       20
SCALARS Porosity             float 1
LOOKUP_TABLE default
 9.888745E-01  9.885071E-01  9.882233E-01  9.879904E-01  9.877919E-01  9.876180E-01  9.874623E-01  9.873206E-01  9.871895E-01  9.870669E-01
 9.869510E-01  9.868405E-01  9.867343E-01  9.866315E-01  9.865314E-01  9.864336E-01  9.863375E-01  9.862428E-01  9.861491E-01  9.860563E-01


SCALARS Permeability_X       float 1
LOOKUP_TABLE default
 1.000000E-12  1.000000E-12  1.000000E-12  1.000000E-12  1.000000E-12  1.000000E-12  1.000000E-12  1.000000E-12  1.000000E-12  1.000000E-12
 1.000000E-12  1.000000E-12  1.000000E-12  1.000000E-12  1.000000E-12  1.000000E-12  1.000000E-12  1.000000E-12  1.000000E-12  1.000000E-12


SCALARS Liquid_Pressure      float 1
LOOKUP_TABLE default
 7.500296E+06  7.500281E+06  7.500266E+06  7.500250E+06  7.500235E+06  7.500220E+06  7.500205E+06  7.500190E+06  7.500175E+06  7.500159E+06
 7.500144E+06  7.500129E+06  7.500114E+06  7.500099E+06  7.500083E+06  7.500068E+06  7.500053E+06  7.500038E+06  7.500023E+06  7.500008E+06


SCALARS Temperature          float 1
LOOKUP_TABLE default
 1.500000E+02  1.500000E+02  1.499999E+02  1.499999E+02  1.499999E+02  1.499999E+02  1.499999E+02  1.499999E+02  1.499998E+02  1.499998E+02
 1.499998E+02  1.499998E+02  1.499998E+02  1.499998E+02  1.499998E+02  1.499998E+02  1.499998E+02  1.499999E+02  1.499999E+02  1.500000E+02


SCALARS pH                   float 1
LOOKUP_TABLE default
 4.821116E+00  4.913051E+00  4.994534E+00  5.066239E+00  5.129649E+00  5.186215E+00  5.237161E+00  5.283470E+00  5.325922E+00  5.365138E+00
 5.401611E+00  5.435742E+00  5.467854E+00  5.498213E+00  5.527038E+00  5.554512E+00  5.580786E+00  5.605987E+00  5.630222E+00  5.653519E+00


SCALARS Total_H+             float 1
LOOKUP_TABLE default
-3.714419E-04 -4.237118E-04 -4.788725E-04 -5.358018E-04 -5.939048E-04 -6.528602E-04 -7.124991E-04 -7.727404E-04 -8.335559E-04 -8.949496E-04
-9.569456E-04 -1.019580E-03 -1.082896E-03 -1.146940E-03 -1.211760E-03 -1.277399E-03 -1.343901E-03 -1.411300E-03 -1.479626E-03 -1.548713E-03


SCALARS Total_SiO2(aq)       float 1
LOOKUP_TABLE default
 1.405362E-02  1.404741E-02  1.404073E-02  1.403359E-02  1.402601E-02  1.401801E-02  1.400959E-02  1.400079E-02  1.399161E-02  1.398206E-02
 1.397217E-02  1.396193E-02  1.395136E-02  1.394047E-02  1.392926E-02  1.391773E-02  1.390591E-02  1.389377E-02  1.388135E-02  1.386866E-02


SCALARS Total_Al+++          float 1
LOOKUP_TABLE default
 6.015348E-05  6.015348E-05  6.015348E-05  6.015348E-05  6.015348E-05  6.015348E-05  6.015348E-05  6.015348E-05  6.015348E-05  6.015348E-05
 6.015348E-05  6.015348E-05  6.015348E-05  6.015349E-05  6.015349E-05  6.015349E-05  6.015349E-05  6.015349E-05  6.015349E-05  6.015349E-05


SCALARS Total_Ca++           float 1
LOOKUP_TABLE default
 9.318803E-05  1.193230E-04  1.469033E-04  1.753680E-04  2.044194E-04  2.338972E-04  2.637166E-04  2.938373E-04  3.242450E-04  3.549419E-04
 3.859399E-04  4.172571E-04  4.489152E-04  4.809372E-04  5.133468E-04  5.461666E-04  5.794174E-04  6.131172E-04  6.472800E-04  6.818238E-04


SCALARS Total_Cl-            float 1
LOOKUP_TABLE default
 2.513233E-02  2.513233E-02  2.513233E-02  2.513233E-02  2.513233E-02  2.513233E-02  2.513233E-02  2.513233E-02  2.513233E-02  2.513233E-02
 2.513233E-02  2.513233E-02  2.513233E-02  2.513233E-02  2.513233E-02  2.513233E-02  2.513233E-02  2.513233E-02  2.513233E-02  2.513233E-02


SCALARS Total_CO2(aq)        float 1
LOOKUP_TABLE default
 1.358989E-02  1.361602E-02  1.364360E-02  1.367207E-02  1.370112E-02  1.373060E-02  1.376042E-02  1.379054E-02  1.382094E-02  1.385164E-02
 1.388264E-02  1.391396E-02  1.394561E-02  1.397764E-02  1.401005E-02  1.404287E-02  1.407612E-02  1.410982E-02  1.414398E-02  1.417852E-02


SCALARS Total_Na+            float 1
LOOKUP_TABLE default
 3.122900E-02  3.122900E-02  3.122900E-02  3.122900E-02  3.122900E-02  3.122900E-02  3.122900E-02  3.122900E-02  3.122900E-02  3.122900E-02
 3.122900E-02  3.122900E-02  3.122900E-02  3.122900E-02  3.122900E-02  3.122900E-02  3.122900E-02  3.122900E-02  3.122900E-02  3.122900E-02


SCALARS Total_K+             float 1
LOOKUP_TABLE default
 2.655416E-03  2.655416E-03  2.655416E-03  2.655416E-03  2.655416E-03  2.655416E-03  2.655416E-03  2.655416E-03  2.655416E-03  2.655416E-03
 2.655416E-03  2.655416E-03  2.655416E-03  2.655416E-03  2.655416E-03  2.655416E-03  2.655416E-03  2.655416E-03  2.655415E-03  2.655415E-03


SCALARS Total_Mg++           float 1
LOOKUP_TABLE default
 8.216757E-07  8.216757E-07  8.216757E-07  8.216757E-07  8.216757E-07  8.216757E-07  8.216757E-07  8.216757E-07  8.216757E-07  8.216757E-07
 8.216757E-07  8.216757E-07  8.216757E-07  8.216756E-07  8.216756E-07  8.216756E-07  8.216756E-07  8.216756E-07  8.216756E-07  8.216756E-07


SCALARS Total_Fe++           float 1
LOOKUP_TABLE default
 1.251593E-06  1.251593E-06  1.251593E-06  1.251593E-06  1.251593E-06  1.251593E-06  1.251593E-06  1.251593E-06  1.251593E-06  1.251593E-06
 1.251593E-06  1.251593E-06  1.251593E-06  1.251593E-06  1.251592E-06  1.251592E-06  1.251592E-06  1.251592E-06  1.251592E-06  1.251592E-06


SCALARS Total_Cu++           float 1
LOOKUP_TABLE default
 9.952832E-11  9.952832E-11  9.952832E-11  9.952832E-11  9.952832E-11  9.952832E-11  9.952832E-11  9.952832E-11  9.952832E-11  9.952832E-11
 9.952832E-11  9.952832E-11  9.952832E-11  9.952832E-11  9.952832E-11  9.952832E-11  9.952832E-11  9.952832E-11  9.952832E-11  9.952832E-11


SCALARS Total_SO4--          float 1
LOOKUP_TABLE default
 4.376188E-03  4.376188E-03  4.376188E-03  4.376188E-03  4.376188E-03  4.376188E-03  4.376188E-03  4.376188E-03  4.376188E-03  4.376188E-03
 4.376188E-03  4.376188E-03  4.376188E-03  4.376188E-03  4.376188E-03  4.376188E-03  4.376188E-03  4.376188E-03  4.376188E-03  4.376188E-03


SCALARS Total_Tracer         float 1
LOOKUP_TABLE default
 9.952832E-11  9.952832E-11  9.952832E-11  9.952832E-11  9.952832E-11  9.952832E-11  9.952832E-11  9.952832E-11  9.952832E-11  9.952832E-11
 9.952832E-11  9.952832E-11  9.952832E-11  9.952832E-11  9.952832E-11  9.952832E-11  9.952832E-11  9.952832E-11  9.952832E-11  9.952832E-11


SCALARS Active_Gas_CO2(g)    float 1
LOOKUP_TABLE default
 0.000000E+00  0.000000E+00  0.000000E+00  0.000000E+00  0.000000E+00  0.000000E+00  0.000000E+00  0.000000E+00  0.000000E+00  0.000000E+00
 0.000000E+00  0.000000E+00  0.000000E+00  0.000000E+00  0.000000E+00  0.000000E+00  0.000000E+00  0.000000E+00  0.000000E+00  0.000000E+00


SCALARS HCO3-                float 1
LOOKUP_TABLE default
 2.018398E-04  2.490420E-04  2.999246E-04  3.531223E-04  4.078576E-04  4.636854E-04  5.203532E-04  5.777222E-04  6.357226E-04  6.943280E-04
 7.535385E-04  8.133712E-04  8.738535E-04  9.350182E-04  9.969003E-04  1.059534E-03  1.122952E-03  1.187181E-03  1.252241E-03  1.317968E-03


SCALARS H2SiO4--             float 1
LOOKUP_TABLE default
 5.274506E-13  8.052625E-13  1.171607E-12  1.629531E-12  2.181430E-12  2.829588E-12  3.576467E-12  4.424873E-12  5.378038E-12  6.439663E-12
 7.613941E-12  8.905558E-12  1.031970E-11  1.186201E-11  1.353861E-11  1.535603E-11  1.732114E-11  1.944113E-11  2.172331E-11  2.416844E-11


SCALARS H3SiO4-              float 1
LOOKUP_TABLE default
 1.603696E-06  1.980957E-06  2.388704E-06  2.816168E-06  3.257210E-06  3.708316E-06  4.167496E-06  4.633664E-06  5.106291E-06  5.585196E-06
 6.070417E-06  6.562136E-06  7.060623E-06  7.566200E-06  8.079212E-06  8.600009E-06  9.128923E-06  9.666252E-06  1.021224E-05  1.076559E-05


SCALARS Calcite_VF           float 1
LOOKUP_TABLE default
 1.060861E-02  1.090199E-02  1.112598E-02  1.130843E-02  1.146315E-02  1.159837E-02  1.171941E-02  1.182992E-02  1.193250E-02  1.202906E-02
 1.212104E-02  1.220955E-02  1.229547E-02  1.237949E-02  1.246217E-02  1.254398E-02  1.262529E-02  1.270642E-02  1.278761E-02  1.286888E-02


SCALARS SiO2(am)_VF          float 1
LOOKUP_TABLE default
 5.067968E-04  5.796315E-04  6.388295E-04  6.890285E-04  7.326972E-04  7.713433E-04  8.059649E-04  8.372600E-04  8.657377E-04  8.917807E-04
 9.156846E-04  9.376825E-04  9.579617E-04  9.766744E-04  9.939467E-04  1.009884E-03  1.024574E-03  1.038094E-03  1.050507E-03  1.061845E-03


SCALARS Calcite_Rate         float 1
LOOKUP_TABLE default
-3.135726E-05 -3.476281E-05 -3.666780E-05 -3.782485E-05 -3.858533E-05 -3.913207E-05 -3.956628E-05 -3.994662E-05 -4.030821E-05 -4.067257E-05
-4.105295E-05 -4.145740E-05 -4.189050E-05 -4.235445E-05 -4.284963E-05 -4.337494E-05 -4.392797E-05 -4.450502E-05 -4.510109E-05 -4.570862E-05


SCALARS SiO2(am)_Rate        float 1
LOOKUP_TABLE default
 7.685427E-06  8.270035E-06  8.886894E-06  9.495786E-06  1.008358E-05  1.064692E-05  1.118622E-05  1.170327E-05  1.220029E-05  1.267953E-05
 1.314309E-05  1.359289E-05  1.403061E-05  1.445774E-05  1.487559E-05  1.528527E-05  1.568776E-05  1.608387E-05  1.647425E-05  1.685843E-05


SCALARS Calcite_Area         float 1
LOOKUP_TABLE default
 6.302549E-01  8.286892E-01  1.016021E+00  1.195716E+00  1.369884E+00  1.540377E+00  1.708907E+00  1.877066E+00  2.046336E+00  2.218115E+00
 2.393734E+00  2.574481E+00  2.761621E+00  2.956416E+00  3.160139E+00  3.374087E+00  3.599594E+00  3.838041E+00  4.090853E+00  4.358833E+00


SCALARS SiO2(am)_Area        float 1
LOOKUP_TABLE default
 1.256253E+05  1.201149E+05  1.162794E+05  1.133825E+05  1.110835E+05  1.091969E+05  1.076113E+05  1.062545E+05  1.050777E+05  1.040461E+05
 1.031342E+05  1.023228E+05  1.015972E+05  1.009459E+05  1.003594E+05  9.983048E+04  9.935288E+04  9.892158E+04  9.853235E+04  9.818241E+04


SCALARS Material_ID          int 1
LOOKUP_TABLE default
  1
  1
  1
  1
  1
  1
  1
  1
  1
  1
  1
  1
  1
  1
  1
  1
  1
  1
  1
  1


