# vtk DataFile Version 2.0
PFLOTRAN output
ASCII
DATASET UNSTRUCTURED_GRID
POINTS           84 float
 0.000000E+00  0.000000E+00  0.000000E+00
 7.580000E-03  0.000000E+00  0.000000E+00
 1.516000E-02  0.000000E+00  0.000000E+00
 2.274000E-02  0.000000E+00  0.000000E+00
 3.032000E-02  0.000000E+00  0.000000E+00
 3.790000E-02  0.000000E+00  0.000000E+00
 4.548000E-02  0.000000E+00  0.000000E+00
 5.306000E-02  0.000000E+00  0.000000E+00
 6.064000E-02  0.000000E+00  0.000000E+00
 6.822000E-02  0.000000E+00  0.000000E+00
 7.580000E-02  0.000000E+00  0.000000E+00
 8.338000E-02  0.000000E+00  0.000000E+00
 9.096000E-02  0.000000E+00  0.000000E+00
 9.854000E-02  0.000000E+00  0.000000E+00
 1.061200E-01  0.000000E+00  0.000000E+00
 1.137000E-01  0.000000E+00  0.000000E+00
 1.212800E-01  0.000000E+00  0.000000E+00
 1.288600E-01  0.000000E+00  0.000000E+00
 1.364400E-01  0.000000E+00  0.000000E+00
 1.440200E-01  0.000000E+00  0.000000E+00
 1.516000E-01  0.000000E+00  0.000000E+00
 0.000000E+00  1.125000E-02  0.000000E+00
 7.580000E-03  1.125000E-02  0.000000E+00
 1.516000E-02  1.125000E-02  0.000000E+00
 2.274000E-02  1.125000E-02  0.000000E+00
 3.032000E-02  1.125000E-02  0.000000E+00
 3.790000E-02  1.125000E-02  0.000000E+00
 4.548000E-02  1.125000E-02  0.000000E+00
 5.306000E-02  1.125000E-02  0.000000E+00
 6.064000E-02  1.125000E-02  0.000000E+00
 6.822000E-02  1.125000E-02  0.000000E+00
 7.580000E-02  1.125000E-02  0.000000E+00
 8.338000E-02  1.125000E-02  0.000000E+00
 9.096000E-02  1.125000E-02  0.000000E+00
 9.854000E-02  1.125000E-02  0.000000E+00
 1.061200E-01  1.125000E-02  0.000000E+00
 1.137000E-01  1.125000E-02  0.000000E+00
 1.212800E-01  1.125000E-02  0.000000E+00
 1.288600E-01  1.125000E-02  0.000000E+00
 1.364400E-01  1.125000E-02  0.000000E+00
 1.440200E-01  1.125000E-02  0.000000E+00
 1.516000E-01  1.125000E-02  0.000000E+00
 0.000000E+00  0.000000E+00  1.125000E-02
 7.580000E-03  0.000000E+00  1.125000E-02
 1.516000E-02  0.000000E+00  1.125000E-02
 2.274000E-02  0.000000E+00  1.125000E-02
 3.032000E-02  0.000000E+00  1.125000E-02
 3.790000E-02  0.000000E+00  1.125000E-02
 4.548000E-02  0.000000E+00  1.125000E-02
 5.306000E-02  0.000000E+00  1.125000E-02
 6.064000E-02  0.000000E+00  1.125000E-02
 6.822000E-02  0.000000E+00  1.125000E-02
 7.580000E-02  0.000000E+00  1.125000E-02
 8.338000E-02  0.000000E+00  1.125000E-02
 9.096000E-02  0.000000E+00  1.125000E-02
 9.854000E-02  0.000000E+00  1.125000E-02
 1.061200E-01  0.000000E+00  1.125000E-02
 1.137000E-01  0.000000E+00  1.125000E-02
 1.212800E-01  0.000000E+00  1.125000E-02
 1.288600E-01  0.000000E+00  1.125000E-02
 1.364400E-01  0.000000E+00  1.125000E-02
 1.440200E-01  0.000000E+00  1.125000E-02
 1.516000E-01  0.000000E+00  1.125000E-02
 0.000000E+00  1.125000E-02  1.125000E-02
 7.580000E-03  1.125000E-02  1.125000E-02
 1.516000E-02  1.125000E-02  1.125000E-02
 2.274000E-02  1.125000E-02  1.125000E-02
 3.032000E-02  1.125000E-02  1.125000E-02
 3.790000E-02  1.125000E-02  1.125000E-02
 4.548000E-02  1.125000E-02  1.125000E-02
 5.306000E-02  1.125000E-02  1.125000E-02
 6.064000E-02  1.125000E-02  1.125000E-02
 6.822000E-02  1.125000E-02  1.125000E-02
 7.580000E-02  1.125000E-02  1.125000E-02
 8.338000E-02  1.125000E-02  1.125000E-02
 9.096000E-02  1.125000E-02  1.125000E-02
 9.854000E-02  1.125000E-02  1.125000E-02
 1.061200E-01  1.125000E-02  1.125000E-02
 1.137000E-01  1.125000E-02  1.125000E-02
 1.212800E-01  1.125000E-02  1.125000E-02
 1.288600E-01  1.125000E-02  1.125000E-02
 1.364400E-01  1.125000E-02  1.125000E-02
 1.440200E-01  1.125000E-02  1.125000E-02
 1.516000E-01  1.125000E-02  1.125000E-02
CELLS           20          180
8        0        1       22       21       42       43       64       63
8        1        2       23       22       43       44       65       64
8        2        3       24       23       44       45       66       65
8        3        4       25       24       45       46       67       66
8        4        5       26       25       46       47       68       67
8        5        6       27       26       47       48       69       68
8        6        7       28       27       48       49       70       69
8        7        8       29       28       49       50       71       70
8        8        9       30       29       50       51       72       71
8        9       10       31       30       51       52       73       72
8       10       11       32       31       52       53       74       73
8       11       12       33       32       53       54       75       74
8       12       13       34       33       54       55       76       75
8       13       14       35       34       55       56       77       76
8       14       15       36       35       56       57       78       77
8       15       16       37       36       57       58       79       78
8       16       17       38       37       58       59       80       79
8       17       18       39       38       59       60       81       80
8       18       19       40       39       60       61       82       81
8       19       20       41       40       61       62       83       82

CELL_TYPES           20
12
12
12
12
12
12
12
12
12
12
12
12
12
12
12
12
12
12
12
12

CELL_DATA       20
SCALARS Porosity             float 1
LOOKUP_TABLE default
 9.896166E-01  9.893526E-01  9.891309E-01  9.889367E-01  9.887630E-01  9.886053E-01  9.884604E-01  9.883262E-01  9.882010E-01  9.880833E-01
 9.879720E-01  9.878663E-01  9.877654E-01  9.876686E-01  9.875755E-01  9.874856E-01  9.873985E-01  9.873139E-01  9.872314E-01  9.871510E-01


SCALARS Permeability_X       float 1
LOOKUP_TABLE default
 1.000000E-12  1.000000E-12  1.000000E-12  1.000000E-12  1.000000E-12  1.000000E-12  1.000000E-12  1.000000E-12  1.000000E-12  1.000000E-12
 1.000000E-12  1.000000E-12  1.000000E-12  1.000000E-12  1.000000E-12  1.000000E-12  1.000000E-12  1.000000E-12  1.000000E-12  1.000000E-12


SCALARS Liquid_Pressure      float 1
LOOKUP_TABLE default
 7.500296E+06  7.500281E+06  7.500266E+06  7.500250E+06  7.500235E+06  7.500220E+06  7.500205E+06  7.500190E+06  7.500175E+06  7.500159E+06
 7.500144E+06  7.500129E+06  7.500114E+06  7.500099E+06  7.500083E+06  7.500068E+06  7.500053E+06  7.500038E+06  7.500023E+06  7.500008E+06


SCALARS Temperature          float 1
LOOKUP_TABLE default
 1.500000E+02  1.500000E+02  1.500000E+02  1.500000E+02  1.500000E+02  1.500000E+02  1.500000E+02  1.500000E+02  1.499999E+02  1.499999E+02
 1.499999E+02  1.499999E+02  1.499999E+02  1.499999E+02  1.499999E+02  1.499999E+02  1.499999E+02  1.500000E+02  1.500000E+02  1.500000E+02


SCALARS pH                   float 1
LOOKUP_TABLE default
 4.764354E+00  4.807963E+00  4.851097E+00  4.892928E+00  4.933045E+00  4.971283E+00  5.007621E+00  5.042117E+00  5.074872E+00  5.106005E+00
 5.135641E+00  5.163902E+00  5.190906E+00  5.216759E+00  5.241562E+00  5.265405E+00  5.288371E+00  5.310534E+00  5.331963E+00  5.352664E+00


SCALARS Total_H+             float 1
LOOKUP_TABLE default
-3.434957E-04 -3.646988E-04 -3.874612E-04 -4.114424E-04 -4.364040E-04 -4.621745E-04 -4.886291E-04 -5.156769E-04 -5.432519E-04 -5.713067E-04
-5.998082E-04 -6.287342E-04 -6.580711E-04 -6.878118E-04 -7.179548E-04 -7.485027E-04 -7.794620E-04 -8.108419E-04 -8.426542E-04 -8.748276E-04


SCALARS Total_SiO2(aq)       float 1
LOOKUP_TABLE default
 1.405475E-02  1.405002E-02  1.404515E-02  1.404013E-02  1.403494E-02  1.402959E-02  1.402406E-02  1.401836E-02  1.401248E-02  1.400644E-02
 1.400022E-02  1.399384E-02  1.398730E-02  1.398059E-02  1.397372E-02  1.396669E-02  1.395950E-02  1.395215E-02  1.394466E-02  1.393703E-02


SCALARS Total_Al+++          float 1
LOOKUP_TABLE default
 6.015348E-05  6.015348E-05  6.015348E-05  6.015348E-05  6.015348E-05  6.015348E-05  6.015348E-05  6.015348E-05  6.015348E-05  6.015348E-05
 6.015348E-05  6.015348E-05  6.015348E-05  6.015348E-05  6.015348E-05  6.015348E-05  6.015348E-05  6.015348E-05  6.015348E-05  6.015348E-05


SCALARS Total_Ca++           float 1
LOOKUP_TABLE default
 7.921492E-05  8.981645E-05  1.011977E-04  1.131883E-04  1.256691E-04  1.385543E-04  1.517816E-04  1.653055E-04  1.790930E-04  1.931204E-04
 2.073711E-04  2.218342E-04  2.365026E-04  2.513730E-04  2.664445E-04  2.817184E-04  2.971981E-04  3.128880E-04  3.287942E-04  3.448808E-04


SCALARS Total_Cl-            float 1
LOOKUP_TABLE default
 2.513233E-02  2.513233E-02  2.513233E-02  2.513233E-02  2.513233E-02  2.513233E-02  2.513233E-02  2.513233E-02  2.513233E-02  2.513233E-02
 2.513233E-02  2.513233E-02  2.513233E-02  2.513233E-02  2.513233E-02  2.513233E-02  2.513233E-02  2.513233E-02  2.513233E-02  2.513233E-02


SCALARS Total_CO2(aq)        float 1
LOOKUP_TABLE default
 1.357591E-02  1.358652E-02  1.359790E-02  1.360989E-02  1.362237E-02  1.363525E-02  1.364848E-02  1.366201E-02  1.367579E-02  1.368982E-02
 1.370407E-02  1.371853E-02  1.373320E-02  1.374807E-02  1.376314E-02  1.377842E-02  1.379390E-02  1.380959E-02  1.382549E-02  1.384158E-02


SCALARS Total_Na+            float 1
LOOKUP_TABLE default
 3.122900E-02  3.122900E-02  3.122900E-02  3.122900E-02  3.122900E-02  3.122900E-02  3.122900E-02  3.122900E-02  3.122900E-02  3.122900E-02
 3.122900E-02  3.122900E-02  3.122900E-02  3.122900E-02  3.122900E-02  3.122900E-02  3.122900E-02  3.122900E-02  3.122900E-02  3.122900E-02


SCALARS Total_K+             float 1
LOOKUP_TABLE default
 2.655416E-03  2.655416E-03  2.655416E-03  2.655416E-03  2.655416E-03  2.655416E-03  2.655416E-03  2.655416E-03  2.655416E-03  2.655416E-03
 2.655416E-03  2.655416E-03  2.655416E-03  2.655416E-03  2.655416E-03  2.655416E-03  2.655416E-03  2.655416E-03  2.655416E-03  2.655416E-03


SCALARS Total_Mg++           float 1
LOOKUP_TABLE default
 8.216757E-07  8.216757E-07  8.216757E-07  8.216757E-07  8.216757E-07  8.216757E-07  8.216757E-07  8.216757E-07  8.216757E-07  8.216757E-07
 8.216757E-07  8.216757E-07  8.216757E-07  8.216756E-07  8.216756E-07  8.216756E-07  8.216756E-07  8.216756E-07  8.216756E-07  8.216756E-07


SCALARS Total_Fe++           float 1
LOOKUP_TABLE default
 1.251593E-06  1.251593E-06  1.251593E-06  1.251593E-06  1.251593E-06  1.251593E-06  1.251593E-06  1.251593E-06  1.251593E-06  1.251593E-06
 1.251593E-06  1.251593E-06  1.251593E-06  1.251593E-06  1.251593E-06  1.251593E-06  1.251592E-06  1.251592E-06  1.251592E-06  1.251592E-06


SCALARS Total_Cu++           float 1
LOOKUP_TABLE default
 9.952832E-11  9.952832E-11  9.952832E-11  9.952832E-11  9.952832E-11  9.952832E-11  9.952832E-11  9.952832E-11  9.952832E-11  9.952832E-11
 9.952832E-11  9.952832E-11  9.952832E-11  9.952832E-11  9.952832E-11  9.952832E-11  9.952832E-11  9.952832E-11  9.952832E-11  9.952832E-11


SCALARS Total_SO4--          float 1
LOOKUP_TABLE default
 4.376188E-03  4.376188E-03  4.376188E-03  4.376188E-03  4.376188E-03  4.376188E-03  4.376188E-03  4.376188E-03  4.376188E-03  4.376188E-03
 4.376188E-03  4.376188E-03  4.376188E-03  4.376188E-03  4.376188E-03  4.376188E-03  4.376188E-03  4.376188E-03  4.376188E-03  4.376188E-03


SCALARS Total_Tracer         float 1
LOOKUP_TABLE default
 9.952832E-11  9.952832E-11  9.952832E-11  9.952832E-11  9.952832E-11  9.952832E-11  9.952832E-11  9.952832E-11  9.952832E-11  9.952832E-11
 9.952832E-11  9.952832E-11  9.952832E-11  9.952832E-11  9.952832E-11  9.952832E-11  9.952832E-11  9.952832E-11  9.952832E-11  9.952832E-11


SCALARS Active_Gas_CO2(g)    float 1
LOOKUP_TABLE default
 0.000000E+00  0.000000E+00  0.000000E+00  0.000000E+00  0.000000E+00  0.000000E+00  0.000000E+00  0.000000E+00  0.000000E+00  0.000000E+00
 0.000000E+00  0.000000E+00  0.000000E+00  0.000000E+00  0.000000E+00  0.000000E+00  0.000000E+00  0.000000E+00  0.000000E+00  0.000000E+00


SCALARS HCO3-                float 1
LOOKUP_TABLE default
 1.772480E-04  1.958559E-04  2.161659E-04  2.378538E-04  2.606742E-04  2.844390E-04  3.090042E-04  3.342601E-04  3.601238E-04  3.865331E-04
 4.134423E-04  4.408182E-04  4.686377E-04  4.968860E-04  5.255543E-04  5.546393E-04  5.841420E-04  6.140668E-04  6.444211E-04  6.751334E-04


SCALARS H2SiO4--             float 1
LOOKUP_TABLE default
 4.061195E-13  4.963122E-13  6.052084E-13  7.335796E-13  8.821833E-13  1.051741E-12  1.242952E-12  1.456506E-12  1.693105E-12  1.953476E-12
 2.238380E-12  2.548628E-12  2.885084E-12  3.248676E-12  3.640399E-12  4.061327E-12  4.512615E-12  4.995507E-12  5.511338E-12  6.060055E-12


SCALARS H3SiO4-              float 1
LOOKUP_TABLE default
 1.407312E-06  1.555452E-06  1.717292E-06  1.890273E-06  2.072459E-06  2.262369E-06  2.458868E-06  2.661092E-06  2.868391E-06  3.080278E-06
 3.296396E-06  3.516488E-06  3.740380E-06  3.967959E-06  4.199168E-06  4.433988E-06  4.672439E-06  4.914569E-06  5.160450E-06  5.409514E-06


SCALARS Calcite_VF           float 1
LOOKUP_TABLE default
 9.597532E-03  9.776280E-03  9.924655E-03  1.005380E-02  1.016896E-02  1.027333E-02  1.036910E-02  1.045787E-02  1.054089E-02  1.061913E-02
 1.069337E-02  1.076426E-02  1.083234E-02  1.089804E-02  1.096176E-02  1.102381E-02  1.108448E-02  1.114402E-02  1.120263E-02  1.126037E-02


SCALARS SiO2(am)_VF          float 1
LOOKUP_TABLE default
 7.827636E-04  8.674553E-04  9.404743E-04  1.005217E-03  1.063585E-03  1.116813E-03  1.165766E-03  1.211087E-03  1.253265E-03  1.292687E-03
 1.329663E-03  1.364447E-03  1.397248E-03  1.428243E-03  1.457581E-03  1.485390E-03  1.511778E-03  1.536842E-03  1.560665E-03  1.583262E-03


SCALARS Calcite_Rate         float 1
LOOKUP_TABLE default
-1.271928E-05 -1.410929E-05 -1.514354E-05 -1.595047E-05 -1.659850E-05 -1.713212E-05 -1.758250E-05 -1.797219E-05 -1.831784E-05 -1.863191E-05
-1.892388E-05 -1.920099E-05 -1.946893E-05 -1.973213E-05 -1.999418E-05 -2.025797E-05 -2.052589E-05 -2.079994E-05 -2.108182E-05 -2.137232E-05


SCALARS SiO2(am)_Rate        float 1
LOOKUP_TABLE default
 6.171577E-06  6.304233E-06  6.482822E-06  6.686607E-06  6.904389E-06  7.129545E-06  7.358000E-06  7.587209E-06  7.815587E-06  8.042165E-06
 8.266377E-06  8.487924E-06  8.706682E-06  8.922644E-06  9.135884E-06  9.346524E-06  9.554722E-06  9.760654E-06  9.964508E-06  1.016595E-05


SCALARS Calcite_Area         float 1
LOOKUP_TABLE default
 2.299886E-01  2.767269E-01  3.218192E-01  3.663234E-01  4.105903E-01  4.547968E-01  4.990717E-01  5.435330E-01  5.882996E-01  6.334944E-01
 6.792450E-01  7.256834E-01  7.729462E-01  8.211746E-01  8.705147E-01  9.211179E-01  9.731420E-01  1.026752E+00  1.082120E+00  1.139279E+00


SCALARS SiO2(am)_Area        float 1
LOOKUP_TABLE default
 1.085959E+05  1.049333E+05  1.021401E+05  9.989591E+04  9.803239E+04  9.644847E+04  9.507836E+04  9.387681E+04  9.281136E+04  9.185800E+04
 9.099846E+04  9.021856E+04  8.950707E+04  8.885500E+04  8.825499E+04  8.770099E+04  8.718796E+04  8.671167E+04  8.626851E+04  8.585643E+04


SCALARS Material_ID          int 1
LOOKUP_TABLE default
  1
  1
  1
  1
  1
  1
  1
  1
  1
  1
  1
  1
  1
  1
  1
  1
  1
  1
  1
  1


