# vtk DataFile Version 2.0
PFLOTRAN output
ASCII
DATASET UNSTRUCTURED_GRID
POINTS           84 float
 0.000000E+00  0.000000E+00  0.000000E+00
 7.580000E-03  0.000000E+00  0.000000E+00
 1.516000E-02  0.000000E+00  0.000000E+00
 2.274000E-02  0.000000E+00  0.000000E+00
 3.032000E-02  0.000000E+00  0.000000E+00
 3.790000E-02  0.000000E+00  0.000000E+00
 4.548000E-02  0.000000E+00  0.000000E+00
 5.306000E-02  0.000000E+00  0.000000E+00
 6.064000E-02  0.000000E+00  0.000000E+00
 6.822000E-02  0.000000E+00  0.000000E+00
 7.580000E-02  0.000000E+00  0.000000E+00
 8.338000E-02  0.000000E+00  0.000000E+00
 9.096000E-02  0.000000E+00  0.000000E+00
 9.854000E-02  0.000000E+00  0.000000E+00
 1.061200E-01  0.000000E+00  0.000000E+00
 1.137000E-01  0.000000E+00  0.000000E+00
 1.212800E-01  0.000000E+00  0.000000E+00
 1.288600E-01  0.000000E+00  0.000000E+00
 1.364400E-01  0.000000E+00  0.000000E+00
 1.440200E-01  0.000000E+00  0.000000E+00
 1.516000E-01  0.000000E+00  0.000000E+00
 0.000000E+00  1.125000E-02  0.000000E+00
 7.580000E-03  1.125000E-02  0.000000E+00
 1.516000E-02  1.125000E-02  0.000000E+00
 2.274000E-02  1.125000E-02  0.000000E+00
 3.032000E-02  1.125000E-02  0.000000E+00
 3.790000E-02  1.125000E-02  0.000000E+00
 4.548000E-02  1.125000E-02  0.000000E+00
 5.306000E-02  1.125000E-02  0.000000E+00
 6.064000E-02  1.125000E-02  0.000000E+00
 6.822000E-02  1.125000E-02  0.000000E+00
 7.580000E-02  1.125000E-02  0.000000E+00
 8.338000E-02  1.125000E-02  0.000000E+00
 9.096000E-02  1.125000E-02  0.000000E+00
 9.854000E-02  1.125000E-02  0.000000E+00
 1.061200E-01  1.125000E-02  0.000000E+00
 1.137000E-01  1.125000E-02  0.000000E+00
 1.212800E-01  1.125000E-02  0.000000E+00
 1.288600E-01  1.125000E-02  0.000000E+00
 1.364400E-01  1.125000E-02  0.000000E+00
 1.440200E-01  1.125000E-02  0.000000E+00
 1.516000E-01  1.125000E-02  0.000000E+00
 0.000000E+00  0.000000E+00  1.125000E-02
 7.580000E-03  0.000000E+00  1.125000E-02
 1.516000E-02  0.000000E+00  1.125000E-02
 2.274000E-02  0.000000E+00  1.125000E-02
 3.032000E-02  0.000000E+00  1.125000E-02
 3.790000E-02  0.000000E+00  1.125000E-02
 4.548000E-02  0.000000E+00  1.125000E-02
 5.306000E-02  0.000000E+00  1.125000E-02
 6.064000E-02  0.000000E+00  1.125000E-02
 6.822000E-02  0.000000E+00  1.125000E-02
 7.580000E-02  0.000000E+00  1.125000E-02
 8.338000E-02  0.000000E+00  1.125000E-02
 9.096000E-02  0.000000E+00  1.125000E-02
 9.854000E-02  0.000000E+00  1.125000E-02
 1.061200E-01  0.000000E+00  1.125000E-02
 1.137000E-01  0.000000E+00  1.125000E-02
 1.212800E-01  0.000000E+00  1.125000E-02
 1.288600E-01  0.000000E+00  1.125000E-02
 1.364400E-01  0.000000E+00  1.125000E-02
 1.440200E-01  0.000000E+00  1.125000E-02
 1.516000E-01  0.000000E+00  1.125000E-02
 0.000000E+00  1.125000E-02  1.125000E-02
 7.580000E-03  1.125000E-02  1.125000E-02
 1.516000E-02  1.125000E-02  1.125000E-02
 2.274000E-02  1.125000E-02  1.125000E-02
 3.032000E-02  1.125000E-02  1.125000E-02
 3.790000E-02  1.125000E-02  1.125000E-02
 4.548000E-02  1.125000E-02  1.125000E-02
 5.306000E-02  1.125000E-02  1.125000E-02
 6.064000E-02  1.125000E-02  1.125000E-02
 6.822000E-02  1.125000E-02  1.125000E-02
 7.580000E-02  1.125000E-02  1.125000E-02
 8.338000E-02  1.125000E-02  1.125000E-02
 9.096000E-02  1.125000E-02  1.125000E-02
 9.854000E-02  1.125000E-02  1.125000E-02
 1.061200E-01  1.125000E-02  1.125000E-02
 1.137000E-01  1.125000E-02  1.125000E-02
 1.212800E-01  1.125000E-02  1.125000E-02
 1.288600E-01  1.125000E-02  1.125000E-02
 1.364400E-01  1.125000E-02  1.125000E-02
 1.440200E-01  1.125000E-02  1.125000E-02
 1.516000E-01  1.125000E-02  1.125000E-02
CELLS           20          180
8        0        1       22       21       42       43       64       63
8        1        2       23       22       43       44       65       64
8        2        3       24       23       44       45       66       65
8        3        4       25       24       45       46       67       66
8        4        5       26       25       46       47       68       67
8        5        6       27       26       47       48       69       68
8        6        7       28       27       48       49       70       69
8        7        8       29       28       49       50       71       70
8        8        9       30       29       50       51       72       71
8        9       10       31       30       51       52       73       72
8       10       11       32       31       52       53       74       73
8       11       12       33       32       53       54       75       74
8       12       13       34       33       54       55       76       75
8       13       14       35       34       55       56       77       76
8       14       15       36       35       56       57       78       77
8       15       16       37       36       57       58       79       78
8       16       17       38       37       58       59       80       79
8       17       18       39       38       59       60       81       80
8       18       19       40       39       60       61       82       81
8       19       20       41       40       61       62       83       82

CELL_TYPES           20
12
12
12
12
12
12
12
12
12
12
12
12
12
12
12
12
12
12
12
12

CELL_DATA       20
SCALARS Porosity             float 1
LOOKUP_TABLE default
 9.892898E-01  9.889761E-01  9.887219E-01  9.885056E-01  9.883166E-01  9.881480E-01  9.879953E-01  9.878553E-01  9.877255E-01  9.876041E-01
 9.874896E-01  9.873808E-01  9.872768E-01  9.871769E-01  9.870803E-01  9.869866E-01  9.868953E-01  9.868060E-01  9.867183E-01  9.866322E-01


SCALARS Permeability_X       float 1
LOOKUP_TABLE default
 1.000000E-12  1.000000E-12  1.000000E-12  1.000000E-12  1.000000E-12  1.000000E-12  1.000000E-12  1.000000E-12  1.000000E-12  1.000000E-12
 1.000000E-12  1.000000E-12  1.000000E-12  1.000000E-12  1.000000E-12  1.000000E-12  1.000000E-12  1.000000E-12  1.000000E-12  1.000000E-12


SCALARS Liquid_Pressure      float 1
LOOKUP_TABLE default
 7.500296E+06  7.500281E+06  7.500266E+06  7.500250E+06  7.500235E+06  7.500220E+06  7.500205E+06  7.500190E+06  7.500175E+06  7.500159E+06
 7.500144E+06  7.500129E+06  7.500114E+06  7.500099E+06  7.500083E+06  7.500068E+06  7.500053E+06  7.500038E+06  7.500023E+06  7.500008E+06


SCALARS Temperature          float 1
LOOKUP_TABLE default
 1.500000E+02  1.500000E+02  1.500000E+02  1.500000E+02  1.499999E+02  1.499999E+02  1.499999E+02  1.499999E+02  1.499999E+02  1.499999E+02
 1.499999E+02  1.499999E+02  1.499999E+02  1.499999E+02  1.499999E+02  1.499999E+02  1.499999E+02  1.499999E+02  1.499999E+02  1.500000E+02


SCALARS pH                   float 1
LOOKUP_TABLE default
 4.786884E+00  4.851307E+00  4.912286E+00  4.968941E+00  5.021226E+00  5.069438E+00  5.113986E+00  5.155295E+00  5.193760E+00  5.229730E+00
 5.263512E+00  5.295370E+00  5.325530E+00  5.354187E+00  5.381510E+00  5.407644E+00  5.432714E+00  5.456831E+00  5.480090E+00  5.502515E+00


SCALARS Total_H+             float 1
LOOKUP_TABLE default
-3.542361E-04 -3.875775E-04 -4.232355E-04 -4.605382E-04 -4.990647E-04 -5.385459E-04 -5.788083E-04 -6.197417E-04 -6.612783E-04 -7.033794E-04
-7.460269E-04 -7.892176E-04 -8.329587E-04 -8.772659E-04 -9.221604E-04 -9.676686E-04 -1.013820E-03 -1.060647E-03 -1.108184E-03 -1.156339E-03


SCALARS Total_SiO2(aq)       float 1
LOOKUP_TABLE default
 1.405425E-02  1.404889E-02  1.404327E-02  1.403737E-02  1.403119E-02  1.402473E-02  1.401799E-02  1.401099E-02  1.400372E-02  1.399620E-02
 1.398842E-02  1.398040E-02  1.397214E-02  1.396365E-02  1.395492E-02  1.394597E-02  1.393679E-02  1.392739E-02  1.391777E-02  1.390797E-02


SCALARS Total_Al+++          float 1
LOOKUP_TABLE default
 6.015348E-05  6.015348E-05  6.015348E-05  6.015348E-05  6.015348E-05  6.015348E-05  6.015348E-05  6.015348E-05  6.015348E-05  6.015348E-05
 6.015348E-05  6.015348E-05  6.015348E-05  6.015348E-05  6.015348E-05  6.015348E-05  6.015348E-05  6.015348E-05  6.015348E-05  6.015348E-05


SCALARS Total_Ca++           float 1
LOOKUP_TABLE default
 8.458511E-05  1.012558E-04  1.190848E-04  1.377362E-04  1.569994E-04  1.767400E-04  1.968712E-04  2.173379E-04  2.381062E-04  2.591568E-04
 2.804805E-04  3.020758E-04  3.239464E-04  3.461000E-04  3.685473E-04  3.913014E-04  4.143771E-04  4.377906E-04  4.615592E-04  4.856366E-04


SCALARS Total_Cl-            float 1
LOOKUP_TABLE default
 2.513233E-02  2.513233E-02  2.513233E-02  2.513233E-02  2.513233E-02  2.513233E-02  2.513233E-02  2.513233E-02  2.513233E-02  2.513233E-02
 2.513233E-02  2.513233E-02  2.513233E-02  2.513233E-02  2.513233E-02  2.513233E-02  2.513233E-02  2.513233E-02  2.513233E-02  2.513233E-02


SCALARS Total_CO2(aq)        float 1
LOOKUP_TABLE default
 1.358128E-02  1.359796E-02  1.361578E-02  1.363444E-02  1.365370E-02  1.367344E-02  1.369357E-02  1.371404E-02  1.373481E-02  1.375586E-02
 1.377718E-02  1.379878E-02  1.382065E-02  1.384280E-02  1.386525E-02  1.388800E-02  1.391108E-02  1.393449E-02  1.395826E-02  1.398234E-02


SCALARS Total_Na+            float 1
LOOKUP_TABLE default
 3.122900E-02  3.122900E-02  3.122900E-02  3.122900E-02  3.122900E-02  3.122900E-02  3.122900E-02  3.122900E-02  3.122900E-02  3.122900E-02
 3.122900E-02  3.122900E-02  3.122900E-02  3.122900E-02  3.122900E-02  3.122900E-02  3.122900E-02  3.122900E-02  3.122900E-02  3.122900E-02


SCALARS Total_K+             float 1
LOOKUP_TABLE default
 2.655416E-03  2.655416E-03  2.655416E-03  2.655416E-03  2.655416E-03  2.655416E-03  2.655416E-03  2.655416E-03  2.655416E-03  2.655416E-03
 2.655416E-03  2.655416E-03  2.655416E-03  2.655416E-03  2.655416E-03  2.655416E-03  2.655416E-03  2.655416E-03  2.655416E-03  2.655415E-03


SCALARS Total_Mg++           float 1
LOOKUP_TABLE default
 8.216757E-07  8.216757E-07  8.216757E-07  8.216757E-07  8.216757E-07  8.216757E-07  8.216757E-07  8.216757E-07  8.216757E-07  8.216757E-07
 8.216757E-07  8.216757E-07  8.216757E-07  8.216756E-07  8.216756E-07  8.216756E-07  8.216756E-07  8.216756E-07  8.216756E-07  8.216756E-07


SCALARS Total_Fe++           float 1
LOOKUP_TABLE default
 1.251593E-06  1.251593E-06  1.251593E-06  1.251593E-06  1.251593E-06  1.251593E-06  1.251593E-06  1.251593E-06  1.251593E-06  1.251593E-06
 1.251593E-06  1.251593E-06  1.251593E-06  1.251593E-06  1.251593E-06  1.251592E-06  1.251592E-06  1.251592E-06  1.251592E-06  1.251592E-06


SCALARS Total_Cu++           float 1
LOOKUP_TABLE default
 9.952832E-11  9.952832E-11  9.952832E-11  9.952832E-11  9.952832E-11  9.952832E-11  9.952832E-11  9.952832E-11  9.952832E-11  9.952832E-11
 9.952832E-11  9.952832E-11  9.952832E-11  9.952832E-11  9.952832E-11  9.952832E-11  9.952832E-11  9.952832E-11  9.952832E-11  9.952832E-11


SCALARS Total_SO4--          float 1
LOOKUP_TABLE default
 4.376188E-03  4.376188E-03  4.376188E-03  4.376188E-03  4.376188E-03  4.376188E-03  4.376188E-03  4.376188E-03  4.376188E-03  4.376188E-03
 4.376188E-03  4.376188E-03  4.376188E-03  4.376188E-03  4.376188E-03  4.376188E-03  4.376188E-03  4.376188E-03  4.376188E-03  4.376188E-03


SCALARS Total_Tracer         float 1
LOOKUP_TABLE default
 9.952832E-11  9.952832E-11  9.952832E-11  9.952832E-11  9.952832E-11  9.952832E-11  9.952832E-11  9.952832E-11  9.952832E-11  9.952832E-11
 9.952832E-11  9.952832E-11  9.952832E-11  9.952832E-11  9.952832E-11  9.952832E-11  9.952832E-11  9.952832E-11  9.952832E-11  9.952832E-11


SCALARS Active_Gas_CO2(g)    float 1
LOOKUP_TABLE default
 0.000000E+00  0.000000E+00  0.000000E+00  0.000000E+00  0.000000E+00  0.000000E+00  0.000000E+00  0.000000E+00  0.000000E+00  0.000000E+00
 0.000000E+00  0.000000E+00  0.000000E+00  0.000000E+00  0.000000E+00  0.000000E+00  0.000000E+00  0.000000E+00  0.000000E+00  0.000000E+00


SCALARS HCO3-                float 1
LOOKUP_TABLE default
 1.866312E-04  2.162701E-04  2.486071E-04  2.829237E-04  3.187319E-04  3.557005E-04  3.936058E-04  4.322978E-04  4.716776E-04  5.116824E-04
 5.522747E-04  5.934356E-04  6.351596E-04  6.774513E-04  7.203227E-04  7.637917E-04  8.078803E-04  8.526143E-04  8.980213E-04  9.440088E-04


SCALARS H2SiO4--             float 1
LOOKUP_TABLE default
 4.505194E-13  6.059574E-13  8.021917E-13  1.041030E-12  1.324044E-12  1.652678E-12  2.028345E-12  2.452508E-12  2.926729E-12  3.452708E-12
 4.032313E-12  4.667596E-12  5.360816E-12  6.114449E-12  6.931209E-12  7.814053E-12  8.766201E-12  9.791146E-12  1.089266E-11  1.207158E-11


SCALARS H3SiO4-              float 1
LOOKUP_TABLE default
 1.482200E-06  1.718583E-06  1.976887E-06  2.251447E-06  2.538419E-06  2.835194E-06  3.140011E-06  3.451693E-06  3.769470E-06  4.092855E-06
 4.421570E-06  4.755483E-06  5.094573E-06  5.438900E-06  5.788590E-06  6.143817E-06  6.504792E-06  6.871760E-06  7.244986E-06  7.623748E-06


SCALARS Calcite_VF           float 1
LOOKUP_TABLE default
 1.007569E-02  1.030860E-02  1.049530E-02  1.065303E-02  1.079032E-02  1.091243E-02  1.102290E-02  1.112431E-02  1.121856E-02  1.130710E-02
 1.139108E-02  1.147139E-02  1.154877E-02  1.162382E-02  1.169703E-02  1.176883E-02  1.183957E-02  1.190957E-02  1.197908E-02  1.204818E-02


SCALARS SiO2(am)_VF          float 1
LOOKUP_TABLE default
 6.287585E-04  7.086624E-04  7.757081E-04  8.339106E-04  8.854856E-04  9.318381E-04  9.739311E-04  1.012459E-03  1.047941E-03  1.080777E-03
 1.111282E-03  1.139708E-03  1.166261E-03  1.191110E-03  1.214397E-03  1.236242E-03  1.256747E-03  1.275999E-03  1.294073E-03  1.310993E-03


SCALARS Calcite_Rate         float 1
LOOKUP_TABLE default
-1.988321E-05 -2.218123E-05 -2.371457E-05 -2.479982E-05 -2.560453E-05 -2.622964E-05 -2.673924E-05 -2.717531E-05 -2.756612E-05 -2.793112E-05
-2.828399E-05 -2.863455E-05 -2.898993E-05 -2.935547E-05 -2.973517E-05 -3.013210E-05 -3.054860E-05 -3.098652E-05 -3.144725E-05 -3.193073E-05


SCALARS SiO2(am)_Rate        float 1
LOOKUP_TABLE default
 6.838285E-06  7.135738E-06  7.485030E-06  7.853868E-06  8.227205E-06  8.597668E-06  8.961701E-06  9.317747E-06  9.665317E-06  1.000450E-05
 1.033569E-05  1.065943E-05  1.097633E-05  1.128703E-05  1.159215E-05  1.189229E-05  1.218801E-05  1.247986E-05  1.276833E-05  1.305313E-05


SCALARS Calcite_Area         float 1
LOOKUP_TABLE default
 3.749547E-01  4.715634E-01  5.645168E-01  6.555085E-01  7.451931E-01  8.340466E-01  9.225187E-01  1.011060E+00  1.100124E+00  1.190164E+00
 1.281633E+00  1.374987E+00  1.470685E+00  1.569194E+00  1.670990E+00  1.776568E+00  1.886444E+00  2.001156E+00  2.121275E+00  2.247082E+00


SCALARS SiO2(am)_Area        float 1
LOOKUP_TABLE default
 1.168598E+05  1.122819E+05  1.089443E+05  1.063458E+05  1.042382E+05  1.024797E+05  1.009813E+05  9.968377E+04  9.854597E+04  9.753803E+04
 9.663770E+04  9.582802E+04  9.509577E+04  9.443045E+04  9.382363E+04  9.326843E+04  9.275915E+04  9.229108E+04  9.186023E+04  9.146418E+04


SCALARS Material_ID          int 1
LOOKUP_TABLE default
  1
  1
  1
  1
  1
  1
  1
  1
  1
  1
  1
  1
  1
  1
  1
  1
  1
  1
  1
  1


