# vtk DataFile Version 2.0
PFLOTRAN output
ASCII
DATASET UNSTRUCTURED_GRID
POINTS           84 float
 0.000000E+00  0.000000E+00  0.000000E+00
 7.580000E-03  0.000000E+00  0.000000E+00
 1.516000E-02  0.000000E+00  0.000000E+00
 2.274000E-02  0.000000E+00  0.000000E+00
 3.032000E-02  0.000000E+00  0.000000E+00
 3.790000E-02  0.000000E+00  0.000000E+00
 4.548000E-02  0.000000E+00  0.000000E+00
 5.306000E-02  0.000000E+00  0.000000E+00
 6.064000E-02  0.000000E+00  0.000000E+00
 6.822000E-02  0.000000E+00  0.000000E+00
 7.580000E-02  0.000000E+00  0.000000E+00
 8.338000E-02  0.000000E+00  0.000000E+00
 9.096000E-02  0.000000E+00  0.000000E+00
 9.854000E-02  0.000000E+00  0.000000E+00
 1.061200E-01  0.000000E+00  0.000000E+00
 1.137000E-01  0.000000E+00  0.000000E+00
 1.212800E-01  0.000000E+00  0.000000E+00
 1.288600E-01  0.000000E+00  0.000000E+00
 1.364400E-01  0.000000E+00  0.000000E+00
 1.440200E-01  0.000000E+00  0.000000E+00
 1.516000E-01  0.000000E+00  0.000000E+00
 0.000000E+00  1.125000E-02  0.000000E+00
 7.580000E-03  1.125000E-02  0.000000E+00
 1.516000E-02  1.125000E-02  0.000000E+00
 2.274000E-02  1.125000E-02  0.000000E+00
 3.032000E-02  1.125000E-02  0.000000E+00
 3.790000E-02  1.125000E-02  0.000000E+00
 4.548000E-02  1.125000E-02  0.000000E+00
 5.306000E-02  1.125000E-02  0.000000E+00
 6.064000E-02  1.125000E-02  0.000000E+00
 6.822000E-02  1.125000E-02  0.000000E+00
 7.580000E-02  1.125000E-02  0.000000E+00
 8.338000E-02  1.125000E-02  0.000000E+00
 9.096000E-02  1.125000E-02  0.000000E+00
 9.854000E-02  1.125000E-02  0.000000E+00
 1.061200E-01  1.125000E-02  0.000000E+00
 1.137000E-01  1.125000E-02  0.000000E+00
 1.212800E-01  1.125000E-02  0.000000E+00
 1.288600E-01  1.125000E-02  0.000000E+00
 1.364400E-01  1.125000E-02  0.000000E+00
 1.440200E-01  1.125000E-02  0.000000E+00
 1.516000E-01  1.125000E-02  0.000000E+00
 0.000000E+00  0.000000E+00  1.125000E-02
 7.580000E-03  0.000000E+00  1.125000E-02
 1.516000E-02  0.000000E+00  1.125000E-02
 2.274000E-02  0.000000E+00  1.125000E-02
 3.032000E-02  0.000000E+00  1.125000E-02
 3.790000E-02  0.000000E+00  1.125000E-02
 4.548000E-02  0.000000E+00  1.125000E-02
 5.306000E-02  0.000000E+00  1.125000E-02
 6.064000E-02  0.000000E+00  1.125000E-02
 6.822000E-02  0.000000E+00  1.125000E-02
 7.580000E-02  0.000000E+00  1.125000E-02
 8.338000E-02  0.000000E+00  1.125000E-02
 9.096000E-02  0.000000E+00  1.125000E-02
 9.854000E-02  0.000000E+00  1.125000E-02
 1.061200E-01  0.000000E+00  1.125000E-02
 1.137000E-01  0.000000E+00  1.125000E-02
 1.212800E-01  0.000000E+00  1.125000E-02
 1.288600E-01  0.000000E+00  1.125000E-02
 1.364400E-01  0.000000E+00  1.125000E-02
 1.440200E-01  0.000000E+00  1.125000E-02
 1.516000E-01  0.000000E+00  1.125000E-02
 0.000000E+00  1.125000E-02  1.125000E-02
 7.580000E-03  1.125000E-02  1.125000E-02
 1.516000E-02  1.125000E-02  1.125000E-02
 2.274000E-02  1.125000E-02  1.125000E-02
 3.032000E-02  1.125000E-02  1.125000E-02
 3.790000E-02  1.125000E-02  1.125000E-02
 4.548000E-02  1.125000E-02  1.125000E-02
 5.306000E-02  1.125000E-02  1.125000E-02
 6.064000E-02  1.125000E-02  1.125000E-02
 6.822000E-02  1.125000E-02  1.125000E-02
 7.580000E-02  1.125000E-02  1.125000E-02
 8.338000E-02  1.125000E-02  1.125000E-02
 9.096000E-02  1.125000E-02  1.125000E-02
 9.854000E-02  1.125000E-02  1.125000E-02
 1.061200E-01  1.125000E-02  1.125000E-02
 1.137000E-01  1.125000E-02  1.125000E-02
 1.212800E-01  1.125000E-02  1.125000E-02
 1.288600E-01  1.125000E-02  1.125000E-02
 1.364400E-01  1.125000E-02  1.125000E-02
 1.440200E-01  1.125000E-02  1.125000E-02
 1.516000E-01  1.125000E-02  1.125000E-02
CELLS           20          180
8        0        1       22       21       42       43       64       63
8        1        2       23       22       43       44       65       64
8        2        3       24       23       44       45       66       65
8        3        4       25       24       45       46       67       66
8        4        5       26       25       46       47       68       67
8        5        6       27       26       47       48       69       68
8        6        7       28       27       48       49       70       69
8        7        8       29       28       49       50       71       70
8        8        9       30       29       50       51       72       71
8        9       10       31       30       51       52       73       72
8       10       11       32       31       52       53       74       73
8       11       12       33       32       53       54       75       74
8       12       13       34       33       54       55       76       75
8       13       14       35       34       55       56       77       76
8       14       15       36       35       56       57       78       77
8       15       16       37       36       57       58       79       78
8       16       17       38       37       58       59       80       79
8       17       18       39       38       59       60       81       80
8       18       19       40       39       60       61       82       81
8       19       20       41       40       61       62       83       82

CELL_TYPES           20
12
12
12
12
12
12
12
12
12
12
12
12
12
12
12
12
12
12
12
12

CELL_DATA       20
SCALARS Porosity             float 1
LOOKUP_TABLE default
 9.867072E-01  9.862961E-01  9.860500E-01  9.858738E-01  9.857343E-01  9.856169E-01  9.855140E-01  9.854214E-01  9.853368E-01  9.852587E-01
 9.851865E-01  9.851197E-01  9.850580E-01  9.850013E-01  9.849495E-01  9.849024E-01  9.848600E-01  9.848221E-01  9.847884E-01  9.847587E-01


SCALARS Permeability_X       float 1
LOOKUP_TABLE default
 1.000000E-12  1.000000E-12  1.000000E-12  1.000000E-12  1.000000E-12  1.000000E-12  1.000000E-12  1.000000E-12  1.000000E-12  1.000000E-12
 1.000000E-12  1.000000E-12  1.000000E-12  1.000000E-12  1.000000E-12  1.000000E-12  1.000000E-12  1.000000E-12  1.000000E-12  1.000000E-12


SCALARS Liquid_Pressure      float 1
LOOKUP_TABLE default
 7.500296E+06  7.500281E+06  7.500266E+06  7.500250E+06  7.500235E+06  7.500220E+06  7.500205E+06  7.500190E+06  7.500175E+06  7.500159E+06
 7.500144E+06  7.500129E+06  7.500114E+06  7.500099E+06  7.500083E+06  7.500068E+06  7.500053E+06  7.500038E+06  7.500023E+06  7.500008E+06


SCALARS Temperature          float 1
LOOKUP_TABLE default
 1.500000E+02  1.499999E+02  1.499998E+02  1.499998E+02  1.499997E+02  1.499997E+02  1.499996E+02  1.499996E+02  1.499996E+02  1.499995E+02
 1.499995E+02  1.499995E+02  1.499995E+02  1.499995E+02  1.499995E+02  1.499996E+02  1.499996E+02  1.499997E+02  1.499998E+02  1.499999E+02


SCALARS pH                   float 1
LOOKUP_TABLE default
 5.086599E+00  5.280525E+00  5.408782E+00  5.503703E+00  5.578624E+00  5.640199E+00  5.692182E+00  5.736875E+00  5.775778E+00  5.809921E+00
 5.840036E+00  5.866671E+00  5.890248E+00  5.911108E+00  5.929534E+00  5.945773E+00  5.960044E+00  5.972547E+00  5.983465E+00  5.992949E+00


SCALARS Total_H+             float 1
LOOKUP_TABLE default
-5.536116E-04 -7.687437E-04 -9.697563E-04 -1.159032E-03 -1.338362E-03 -1.508896E-03 -1.671300E-03 -1.825887E-03 -1.972729E-03 -2.111738E-03
-2.242732E-03 -2.365502E-03 -2.479855E-03 -2.585658E-03 -2.682865E-03 -2.771539E-03 -2.851855E-03 -2.924094E-03 -2.988637E-03 -3.045826E-03


SCALARS Total_SiO2(aq)       float 1
LOOKUP_TABLE default
 1.404872E-02  1.403560E-02  1.402057E-02  1.400397E-02  1.398602E-02  1.396690E-02  1.394675E-02  1.392566E-02  1.390375E-02  1.388109E-02
 1.385777E-02  1.383387E-02  1.380944E-02  1.378456E-02  1.375928E-02  1.373367E-02  1.370779E-02  1.368168E-02  1.365539E-02  1.362903E-02


SCALARS Total_Al+++          float 1
LOOKUP_TABLE default
 6.015348E-05  6.015348E-05  6.015348E-05  6.015348E-05  6.015349E-05  6.015349E-05  6.015349E-05  6.015349E-05  6.015349E-05  6.015349E-05
 6.015349E-05  6.015349E-05  6.015349E-05  6.015349E-05  6.015349E-05  6.015349E-05  6.015349E-05  6.015348E-05  6.015348E-05  6.015348E-05


SCALARS Total_Ca++           float 1
LOOKUP_TABLE default
 1.842729E-04  2.918389E-04  3.923452E-04  4.869831E-04  5.766481E-04  6.619153E-04  7.431169E-04  8.204105E-04  8.938317E-04  9.633358E-04
 1.028833E-03  1.090218E-03  1.147395E-03  1.200296E-03  1.248900E-03  1.293237E-03  1.333394E-03  1.369514E-03  1.401786E-03  1.430380E-03


SCALARS Total_Cl-            float 1
LOOKUP_TABLE default
 2.513233E-02  2.513233E-02  2.513233E-02  2.513233E-02  2.513233E-02  2.513233E-02  2.513233E-02  2.513233E-02  2.513233E-02  2.513233E-02
 2.513233E-02  2.513233E-02  2.513233E-02  2.513233E-02  2.513233E-02  2.513233E-02  2.513233E-02  2.513233E-02  2.513233E-02  2.513233E-02


SCALARS Total_CO2(aq)        float 1
LOOKUP_TABLE default
 1.368097E-02  1.378854E-02  1.388905E-02  1.398368E-02  1.407335E-02  1.415862E-02  1.423982E-02  1.431711E-02  1.439053E-02  1.446004E-02
 1.452553E-02  1.458692E-02  1.464409E-02  1.469700E-02  1.474560E-02  1.478994E-02  1.483009E-02  1.486621E-02  1.489848E-02  1.492708E-02


SCALARS Total_Na+            float 1
LOOKUP_TABLE default
 3.122900E-02  3.122900E-02  3.122900E-02  3.122900E-02  3.122900E-02  3.122900E-02  3.122900E-02  3.122900E-02  3.122900E-02  3.122900E-02
 3.122900E-02  3.122900E-02  3.122900E-02  3.122900E-02  3.122900E-02  3.122900E-02  3.122900E-02  3.122900E-02  3.122900E-02  3.122900E-02


SCALARS Total_K+             float 1
LOOKUP_TABLE default
 2.655416E-03  2.655416E-03  2.655416E-03  2.655416E-03  2.655416E-03  2.655416E-03  2.655416E-03  2.655416E-03  2.655416E-03  2.655416E-03
 2.655416E-03  2.655416E-03  2.655416E-03  2.655416E-03  2.655416E-03  2.655415E-03  2.655415E-03  2.655415E-03  2.655415E-03  2.655415E-03


SCALARS Total_Mg++           float 1
LOOKUP_TABLE default
 8.216757E-07  8.216757E-07  8.216757E-07  8.216757E-07  8.216757E-07  8.216757E-07  8.216757E-07  8.216757E-07  8.216757E-07  8.216757E-07
 8.216757E-07  8.216756E-07  8.216756E-07  8.216756E-07  8.216756E-07  8.216756E-07  8.216756E-07  8.216756E-07  8.216756E-07  8.216756E-07


SCALARS Total_Fe++           float 1
LOOKUP_TABLE default
 1.251593E-06  1.251593E-06  1.251593E-06  1.251593E-06  1.251593E-06  1.251593E-06  1.251593E-06  1.251593E-06  1.251593E-06  1.251593E-06
 1.251593E-06  1.251593E-06  1.251592E-06  1.251592E-06  1.251592E-06  1.251592E-06  1.251592E-06  1.251592E-06  1.251592E-06  1.251592E-06


SCALARS Total_Cu++           float 1
LOOKUP_TABLE default
 9.952832E-11  9.952832E-11  9.952832E-11  9.952832E-11  9.952832E-11  9.952832E-11  9.952832E-11  9.952832E-11  9.952832E-11  9.952832E-11
 9.952832E-11  9.952832E-11  9.952832E-11  9.952832E-11  9.952832E-11  9.952832E-11  9.952832E-11  9.952831E-11  9.952831E-11  9.952831E-11


SCALARS Total_SO4--          float 1
LOOKUP_TABLE default
 4.376188E-03  4.376188E-03  4.376188E-03  4.376188E-03  4.376188E-03  4.376188E-03  4.376188E-03  4.376188E-03  4.376188E-03  4.376188E-03
 4.376188E-03  4.376188E-03  4.376188E-03  4.376188E-03  4.376188E-03  4.376188E-03  4.376188E-03  4.376188E-03  4.376188E-03  4.376188E-03


SCALARS Total_Tracer         float 1
LOOKUP_TABLE default
 9.952832E-11  9.952832E-11  9.952832E-11  9.952832E-11  9.952832E-11  9.952832E-11  9.952832E-11  9.952832E-11  9.952832E-11  9.952832E-11
 9.952832E-11  9.952832E-11  9.952832E-11  9.952832E-11  9.952832E-11  9.952832E-11  9.952832E-11  9.952831E-11  9.952831E-11  9.952831E-11


SCALARS Active_Gas_CO2(g)    float 1
LOOKUP_TABLE default
 0.000000E+00  0.000000E+00  0.000000E+00  0.000000E+00  0.000000E+00  0.000000E+00  0.000000E+00  0.000000E+00  0.000000E+00  0.000000E+00
 0.000000E+00  0.000000E+00  0.000000E+00  0.000000E+00  0.000000E+00  0.000000E+00  0.000000E+00  0.000000E+00  0.000000E+00  0.000000E+00


SCALARS HCO3-                float 1
LOOKUP_TABLE default
 3.698582E-04  5.739023E-04  7.657543E-04  9.465294E-04  1.117623E-03  1.280030E-03  1.434357E-03  1.580912E-03  1.719785E-03  1.850928E-03
 1.974212E-03  2.089484E-03  2.196611E-03  2.295518E-03  2.386208E-03  2.468785E-03  2.543452E-03  2.610509E-03  2.670340E-03  2.723290E-03


SCALARS H2SiO4--             float 1
LOOKUP_TABLE default
 1.791795E-12  4.376238E-12  7.897673E-12  1.222259E-11  1.724917E-11  2.288935E-11  2.905828E-11  3.566835E-11  4.262628E-11  4.983237E-11
 5.718159E-11  6.456626E-11  7.187969E-11  7.902048E-11  8.589671E-11  9.242962E-11  9.855631E-11  1.042311E-10  1.094256E-10  1.141184E-10


SCALARS H3SiO4-              float 1
LOOKUP_TABLE default
 2.954556E-06  4.613831E-06  6.192983E-06  7.697539E-06  9.136047E-06  1.051431E-05  1.183523E-05  1.309937E-05  1.430560E-05  1.545162E-05
 1.653452E-05  1.755120E-05  1.849884E-05  1.937521E-05  2.017897E-05  2.090982E-05  2.156857E-05  2.215713E-05  2.267837E-05  2.313506E-05


SCALARS Calcite_VF           float 1
LOOKUP_TABLE default
 1.300726E-02  1.339050E-02  1.361778E-02  1.377965E-02  1.390767E-02  1.401587E-02  1.411137E-02  1.419803E-02  1.427804E-02  1.435260E-02
 1.442240E-02  1.448775E-02  1.454879E-02  1.460555E-02  1.465804E-02  1.470626E-02  1.475026E-02  1.479011E-02  1.482596E-02  1.485793E-02


SCALARS SiO2(am)_VF          float 1
LOOKUP_TABLE default
 2.290809E-04  2.619018E-04  2.853611E-04  3.035428E-04  3.182068E-04  3.302860E-04  3.403427E-04  3.487479E-04  3.557642E-04  3.615888E-04
 3.663773E-04  3.702570E-04  3.733363E-04  3.757092E-04  3.774590E-04  3.786604E-04  3.793809E-04  3.796813E-04  3.796164E-04  3.792380E-04


SCALARS Calcite_Rate         float 1
LOOKUP_TABLE default
-1.527251E-04 -1.427375E-04 -1.331438E-04 -1.251738E-04 -1.184265E-04 -1.124713E-04 -1.069826E-04 -1.017264E-04 -9.653939E-05 -9.131381E-05
-8.598795E-05 -8.053916E-05 -7.497773E-05 -6.934042E-05 -6.368342E-05 -5.807471E-05 -5.258657E-05 -4.728878E-05 -4.224312E-05 -3.750949E-05


SCALARS SiO2(am)_Rate        float 1
LOOKUP_TABLE default
 1.420595E-05  1.743581E-05  1.994729E-05  2.201366E-05  2.377353E-05  2.530515E-05  2.665614E-05  2.785708E-05  2.892833E-05  2.988390E-05
 3.073381E-05  3.148555E-05  3.214515E-05  3.271783E-05  3.320848E-05  3.362195E-05  3.396320E-05  3.423739E-05  3.444978E-05  3.460555E-05


SCALARS Calcite_Area         float 1
LOOKUP_TABLE default
 5.011488E+00  6.671288E+00  7.866543E+00  8.828857E+00  9.662378E+00  1.042066E+01  1.113320E+01  1.181655E+01  1.247950E+01  1.312593E+01
 1.375648E+01  1.436960E+01  1.496243E+01  1.553143E+01  1.607289E+01  1.658341E+01  1.706015E+01  1.750109E+01  1.790511E+01  1.827127E+01


SCALARS SiO2(am)_Area        float 1
LOOKUP_TABLE default
 1.645036E+05  1.573995E+05  1.530167E+05  1.499403E+05  1.476353E+05  1.458428E+05  1.444183E+05  1.432725E+05  1.423463E+05  1.415980E+05
 1.409972E+05  1.405203E+05  1.401489E+05  1.398680E+05  1.396650E+05  1.395293E+05  1.394518E+05  1.394248E+05  1.394414E+05  1.394952E+05


SCALARS Material_ID          int 1
LOOKUP_TABLE default
  1
  1
  1
  1
  1
  1
  1
  1
  1
  1
  1
  1
  1
  1
  1
  1
  1
  1
  1
  1


