# vtk DataFile Version 2.0
PFLOTRAN output
ASCII
DATASET UNSTRUCTURED_GRID
POINTS           84 float
 0.000000E+00  0.000000E+00  0.000000E+00
 7.580000E-03  0.000000E+00  0.000000E+00
 1.516000E-02  0.000000E+00  0.000000E+00
 2.274000E-02  0.000000E+00  0.000000E+00
 3.032000E-02  0.000000E+00  0.000000E+00
 3.790000E-02  0.000000E+00  0.000000E+00
 4.548000E-02  0.000000E+00  0.000000E+00
 5.306000E-02  0.000000E+00  0.000000E+00
 6.064000E-02  0.000000E+00  0.000000E+00
 6.822000E-02  0.000000E+00  0.000000E+00
 7.580000E-02  0.000000E+00  0.000000E+00
 8.338000E-02  0.000000E+00  0.000000E+00
 9.096000E-02  0.000000E+00  0.000000E+00
 9.854000E-02  0.000000E+00  0.000000E+00
 1.061200E-01  0.000000E+00  0.000000E+00
 1.137000E-01  0.000000E+00  0.000000E+00
 1.212800E-01  0.000000E+00  0.000000E+00
 1.288600E-01  0.000000E+00  0.000000E+00
 1.364400E-01  0.000000E+00  0.000000E+00
 1.440200E-01  0.000000E+00  0.000000E+00
 1.516000E-01  0.000000E+00  0.000000E+00
 0.000000E+00  1.125000E-02  0.000000E+00
 7.580000E-03  1.125000E-02  0.000000E+00
 1.516000E-02  1.125000E-02  0.000000E+00
 2.274000E-02  1.125000E-02  0.000000E+00
 3.032000E-02  1.125000E-02  0.000000E+00
 3.790000E-02  1.125000E-02  0.000000E+00
 4.548000E-02  1.125000E-02  0.000000E+00
 5.306000E-02  1.125000E-02  0.000000E+00
 6.064000E-02  1.125000E-02  0.000000E+00
 6.822000E-02  1.125000E-02  0.000000E+00
 7.580000E-02  1.125000E-02  0.000000E+00
 8.338000E-02  1.125000E-02  0.000000E+00
 9.096000E-02  1.125000E-02  0.000000E+00
 9.854000E-02  1.125000E-02  0.000000E+00
 1.061200E-01  1.125000E-02  0.000000E+00
 1.137000E-01  1.125000E-02  0.000000E+00
 1.212800E-01  1.125000E-02  0.000000E+00
 1.288600E-01  1.125000E-02  0.000000E+00
 1.364400E-01  1.125000E-02  0.000000E+00
 1.440200E-01  1.125000E-02  0.000000E+00
 1.516000E-01  1.125000E-02  0.000000E+00
 0.000000E+00  0.000000E+00  1.125000E-02
 7.580000E-03  0.000000E+00  1.125000E-02
 1.516000E-02  0.000000E+00  1.125000E-02
 2.274000E-02  0.000000E+00  1.125000E-02
 3.032000E-02  0.000000E+00  1.125000E-02
 3.790000E-02  0.000000E+00  1.125000E-02
 4.548000E-02  0.000000E+00  1.125000E-02
 5.306000E-02  0.000000E+00  1.125000E-02
 6.064000E-02  0.000000E+00  1.125000E-02
 6.822000E-02  0.000000E+00  1.125000E-02
 7.580000E-02  0.000000E+00  1.125000E-02
 8.338000E-02  0.000000E+00  1.125000E-02
 9.096000E-02  0.000000E+00  1.125000E-02
 9.854000E-02  0.000000E+00  1.125000E-02
 1.061200E-01  0.000000E+00  1.125000E-02
 1.137000E-01  0.000000E+00  1.125000E-02
 1.212800E-01  0.000000E+00  1.125000E-02
 1.288600E-01  0.000000E+00  1.125000E-02
 1.364400E-01  0.000000E+00  1.125000E-02
 1.440200E-01  0.000000E+00  1.125000E-02
 1.516000E-01  0.000000E+00  1.125000E-02
 0.000000E+00  1.125000E-02  1.125000E-02
 7.580000E-03  1.125000E-02  1.125000E-02
 1.516000E-02  1.125000E-02  1.125000E-02
 2.274000E-02  1.125000E-02  1.125000E-02
 3.032000E-02  1.125000E-02  1.125000E-02
 3.790000E-02  1.125000E-02  1.125000E-02
 4.548000E-02  1.125000E-02  1.125000E-02
 5.306000E-02  1.125000E-02  1.125000E-02
 6.064000E-02  1.125000E-02  1.125000E-02
 6.822000E-02  1.125000E-02  1.125000E-02
 7.580000E-02  1.125000E-02  1.125000E-02
 8.338000E-02  1.125000E-02  1.125000E-02
 9.096000E-02  1.125000E-02  1.125000E-02
 9.854000E-02  1.125000E-02  1.125000E-02
 1.061200E-01  1.125000E-02  1.125000E-02
 1.137000E-01  1.125000E-02  1.125000E-02
 1.212800E-01  1.125000E-02  1.125000E-02
 1.288600E-01  1.125000E-02  1.125000E-02
 1.364400E-01  1.125000E-02  1.125000E-02
 1.440200E-01  1.125000E-02  1.125000E-02
 1.516000E-01  1.125000E-02  1.125000E-02
CELLS           20          180
8        0        1       22       21       42       43       64       63
8        1        2       23       22       43       44       65       64
8        2        3       24       23       44       45       66       65
8        3        4       25       24       45       46       67       66
8        4        5       26       25       46       47       68       67
8        5        6       27       26       47       48       69       68
8        6        7       28       27       48       49       70       69
8        7        8       29       28       49       50       71       70
8        8        9       30       29       50       51       72       71
8        9       10       31       30       51       52       73       72
8       10       11       32       31       52       53       74       73
8       11       12       33       32       53       54       75       74
8       12       13       34       33       54       55       76       75
8       13       14       35       34       55       56       77       76
8       14       15       36       35       56       57       78       77
8       15       16       37       36       57       58       79       78
8       16       17       38       37       58       59       80       79
8       17       18       39       38       59       60       81       80
8       18       19       40       39       60       61       82       81
8       19       20       41       40       61       62       83       82

CELL_TYPES           20
12
12
12
12
12
12
12
12
12
12
12
12
12
12
12
12
12
12
12
12

CELL_DATA       20
SCALARS Porosity             float 1
LOOKUP_TABLE default
 9.879175E-01  9.874752E-01  9.871708E-01  9.869377E-01  9.867470E-01  9.865837E-01  9.864390E-01  9.863074E-01  9.861854E-01  9.860705E-01
 9.859611E-01  9.858560E-01  9.857545E-01  9.856560E-01  9.855602E-01  9.854671E-01  9.853765E-01  9.852887E-01  9.852038E-01  9.851222E-01


SCALARS Permeability_X       float 1
LOOKUP_TABLE default
 1.000000E-12  1.000000E-12  1.000000E-12  1.000000E-12  1.000000E-12  1.000000E-12  1.000000E-12  1.000000E-12  1.000000E-12  1.000000E-12
 1.000000E-12  1.000000E-12  1.000000E-12  1.000000E-12  1.000000E-12  1.000000E-12  1.000000E-12  1.000000E-12  1.000000E-12  1.000000E-12


SCALARS Liquid_Pressure      float 1
LOOKUP_TABLE default
 7.500296E+06  7.500281E+06  7.500266E+06  7.500250E+06  7.500235E+06  7.500220E+06  7.500205E+06  7.500190E+06  7.500175E+06  7.500159E+06
 7.500144E+06  7.500129E+06  7.500114E+06  7.500099E+06  7.500083E+06  7.500068E+06  7.500053E+06  7.500038E+06  7.500023E+06  7.500008E+06


SCALARS Temperature          float 1
LOOKUP_TABLE default
 1.500000E+02  1.499999E+02  1.499999E+02  1.499999E+02  1.499998E+02  1.499998E+02  1.499997E+02  1.499997E+02  1.499997E+02  1.499997E+02
 1.499996E+02  1.499996E+02  1.499996E+02  1.499996E+02  1.499996E+02  1.499996E+02  1.499997E+02  1.499997E+02  1.499998E+02  1.499999E+02


SCALARS pH                   float 1
LOOKUP_TABLE default
 4.923577E+00  5.073365E+00  5.187535E+00  5.278603E+00  5.354004E+00  5.418252E+00  5.474218E+00  5.523818E+00  5.568376E+00  5.608839E+00
 5.645898E+00  5.680066E+00  5.711730E+00  5.741184E+00  5.768649E+00  5.794296E+00  5.818252E+00  5.840615E+00  5.861457E+00  5.880789E+00


SCALARS Total_H+             float 1
LOOKUP_TABLE default
-4.303313E-04 -5.419487E-04 -6.543293E-04 -7.661288E-04 -8.769978E-04 -9.869232E-04 -1.096001E-03 -1.204349E-03 -1.312064E-03 -1.419209E-03
-1.525796E-03 -1.631784E-03 -1.737073E-03 -1.841502E-03 -1.944847E-03 -2.046822E-03 -2.147082E-03 -2.245232E-03 -2.340834E-03 -2.433205E-03


SCALARS Total_SiO2(aq)       float 1
LOOKUP_TABLE default
 1.405189E-02  1.404322E-02  1.403350E-02  1.402286E-02  1.401137E-02  1.399912E-02  1.398615E-02  1.397252E-02  1.395825E-02  1.394340E-02
 1.392798E-02  1.391203E-02  1.389557E-02  1.387861E-02  1.386119E-02  1.384333E-02  1.382505E-02  1.380636E-02  1.378730E-02  1.376794E-02


SCALARS Total_Al+++          float 1
LOOKUP_TABLE default
 6.015348E-05  6.015348E-05  6.015348E-05  6.015348E-05  6.015348E-05  6.015348E-05  6.015348E-05  6.015349E-05  6.015349E-05  6.015349E-05
 6.015349E-05  6.015349E-05  6.015349E-05  6.015350E-05  6.015350E-05  6.015350E-05  6.015350E-05  6.015350E-05  6.015350E-05  6.015350E-05


SCALARS Total_Ca++           float 1
LOOKUP_TABLE default
 1.226327E-04  1.784414E-04  2.346317E-04  2.905315E-04  3.459660E-04  4.009287E-04  4.554677E-04  5.096415E-04  5.634993E-04  6.170716E-04
 6.703650E-04  7.233590E-04  7.760037E-04  8.282182E-04  8.798907E-04  9.308780E-04  9.810081E-04  1.030083E-03  1.077884E-03  1.124070E-03


SCALARS Total_Cl-            float 1
LOOKUP_TABLE default
 2.513233E-02  2.513233E-02  2.513233E-02  2.513233E-02  2.513233E-02  2.513233E-02  2.513233E-02  2.513233E-02  2.513233E-02  2.513233E-02
 2.513233E-02  2.513233E-02  2.513233E-02  2.513233E-02  2.513233E-02  2.513233E-02  2.513233E-02  2.513233E-02  2.513233E-02  2.513233E-02


SCALARS Total_CO2(aq)        float 1
LOOKUP_TABLE default
 1.361933E-02  1.367514E-02  1.373133E-02  1.378723E-02  1.384267E-02  1.389763E-02  1.395217E-02  1.400634E-02  1.406020E-02  1.411377E-02
 1.416706E-02  1.422006E-02  1.427270E-02  1.432492E-02  1.437659E-02  1.442758E-02  1.447771E-02  1.452678E-02  1.457458E-02  1.462077E-02


SCALARS Total_Na+            float 1
LOOKUP_TABLE default
 3.122900E-02  3.122900E-02  3.122900E-02  3.122900E-02  3.122900E-02  3.122900E-02  3.122900E-02  3.122900E-02  3.122900E-02  3.122900E-02
 3.122900E-02  3.122900E-02  3.122900E-02  3.122900E-02  3.122900E-02  3.122900E-02  3.122900E-02  3.122900E-02  3.122900E-02  3.122900E-02


SCALARS Total_K+             float 1
LOOKUP_TABLE default
 2.655416E-03  2.655416E-03  2.655416E-03  2.655416E-03  2.655416E-03  2.655416E-03  2.655416E-03  2.655416E-03  2.655416E-03  2.655416E-03
 2.655416E-03  2.655416E-03  2.655416E-03  2.655416E-03  2.655416E-03  2.655416E-03  2.655415E-03  2.655415E-03  2.655415E-03  2.655415E-03


SCALARS Total_Mg++           float 1
LOOKUP_TABLE default
 8.216757E-07  8.216757E-07  8.216757E-07  8.216757E-07  8.216757E-07  8.216757E-07  8.216757E-07  8.216757E-07  8.216757E-07  8.216757E-07
 8.216757E-07  8.216757E-07  8.216757E-07  8.216756E-07  8.216756E-07  8.216756E-07  8.216756E-07  8.216756E-07  8.216756E-07  8.216756E-07


SCALARS Total_Fe++           float 1
LOOKUP_TABLE default
 1.251593E-06  1.251593E-06  1.251593E-06  1.251593E-06  1.251593E-06  1.251593E-06  1.251593E-06  1.251593E-06  1.251593E-06  1.251593E-06
 1.251593E-06  1.251593E-06  1.251593E-06  1.251592E-06  1.251592E-06  1.251592E-06  1.251592E-06  1.251592E-06  1.251592E-06  1.251592E-06


SCALARS Total_Cu++           float 1
LOOKUP_TABLE default
 9.952832E-11  9.952832E-11  9.952832E-11  9.952832E-11  9.952832E-11  9.952832E-11  9.952832E-11  9.952832E-11  9.952832E-11  9.952832E-11
 9.952832E-11  9.952832E-11  9.952832E-11  9.952832E-11  9.952832E-11  9.952832E-11  9.952832E-11  9.952832E-11  9.952831E-11  9.952831E-11


SCALARS Total_SO4--          float 1
LOOKUP_TABLE default
 4.376188E-03  4.376188E-03  4.376188E-03  4.376188E-03  4.376188E-03  4.376188E-03  4.376188E-03  4.376188E-03  4.376188E-03  4.376188E-03
 4.376188E-03  4.376188E-03  4.376188E-03  4.376188E-03  4.376188E-03  4.376188E-03  4.376188E-03  4.376188E-03  4.376188E-03  4.376188E-03


SCALARS Total_Tracer         float 1
LOOKUP_TABLE default
 9.952832E-11  9.952832E-11  9.952832E-11  9.952832E-11  9.952832E-11  9.952832E-11  9.952832E-11  9.952832E-11  9.952832E-11  9.952832E-11
 9.952832E-11  9.952832E-11  9.952832E-11  9.952832E-11  9.952832E-11  9.952832E-11  9.952832E-11  9.952832E-11  9.952831E-11  9.952831E-11


SCALARS Active_Gas_CO2(g)    float 1
LOOKUP_TABLE default
 0.000000E+00  0.000000E+00  0.000000E+00  0.000000E+00  0.000000E+00  0.000000E+00  0.000000E+00  0.000000E+00  0.000000E+00  0.000000E+00
 0.000000E+00  0.000000E+00  0.000000E+00  0.000000E+00  0.000000E+00  0.000000E+00  0.000000E+00  0.000000E+00  0.000000E+00  0.000000E+00


SCALARS HCO3-                float 1
LOOKUP_TABLE default
 2.551006E-04  3.588934E-04  4.650754E-04  5.714144E-04  6.771777E-04  7.821608E-04  8.863526E-04  9.898037E-04  1.092569E-03  1.194681E-03
 1.296132E-03  1.396871E-03  1.496792E-03  1.595736E-03  1.693488E-03  1.789775E-03  1.884275E-03  1.976619E-03  2.066405E-03  2.153002E-03


SCALARS H2SiO4--             float 1
LOOKUP_TABLE default
 8.455512E-13  1.685100E-12  2.850035E-12  4.333561E-12  6.130310E-12  8.237357E-12  1.065391E-11  1.338063E-11  1.641884E-11  1.976965E-11
 2.343306E-11  2.740693E-11  3.168599E-11  3.626071E-11  4.111622E-11  4.623134E-11  5.157773E-11  5.711943E-11  6.281267E-11  6.859239E-11


SCALARS H3SiO4-              float 1
LOOKUP_TABLE default
 2.030212E-06  2.864735E-06  3.723729E-06  4.589245E-06  5.455219E-06  6.319823E-06  7.182805E-06  8.044439E-06  8.905053E-06  9.764792E-06
 1.062349E-05  1.148056E-05  1.233499E-05  1.318523E-05  1.402921E-05  1.486433E-05  1.568745E-05  1.649499E-05  1.728294E-05  1.804525E-05


SCALARS Calcite_VF           float 1
LOOKUP_TABLE default
 1.171217E-02  1.209853E-02  1.236135E-02  1.256102E-02  1.272374E-02  1.286312E-02  1.298704E-02  1.310039E-02  1.320634E-02  1.330701E-02
 1.340387E-02  1.349790E-02  1.358976E-02  1.367986E-02  1.376841E-02  1.385549E-02  1.394104E-02  1.402487E-02  1.410675E-02  1.418618E-02


SCALARS SiO2(am)_VF          float 1
LOOKUP_TABLE default
 3.453320E-04  4.002646E-04  4.421524E-04  4.761433E-04  5.047021E-04  5.292161E-04  5.505484E-04  5.692752E-04  5.858015E-04  6.004243E-04
 6.133688E-04  6.248112E-04  6.348928E-04  6.437304E-04  6.514223E-04  6.580536E-04  6.637000E-04  6.684296E-04  6.723060E-04  6.753836E-04


SCALARS Calcite_Rate         float 1
LOOKUP_TABLE default
-7.061312E-05 -7.416897E-05 -7.460676E-05 -7.415291E-05 -7.347026E-05 -7.278232E-05 -7.216180E-05 -7.162224E-05 -7.115137E-05 -7.072440E-05
-7.030974E-05 -6.987159E-05 -6.937131E-05 -6.876847E-05 -6.802187E-05 -6.709091E-05 -6.593734E-05 -6.452740E-05 -6.283429E-05 -6.084651E-05


SCALARS SiO2(am)_Rate        float 1
LOOKUP_TABLE default
 9.991628E-06  1.153504E-05  1.291438E-05  1.414534E-05  1.525672E-05  1.627263E-05  1.721135E-05  1.808658E-05  1.890853E-05  1.968484E-05
 2.042120E-05  2.112176E-05  2.178942E-05  2.242611E-05  2.303291E-05  2.361019E-05  2.415779E-05  2.467504E-05  2.516099E-05  2.561340E-05


SCALARS Calcite_Area         float 1
LOOKUP_TABLE default
 1.716410E+00  2.375459E+00  2.943861E+00  3.453662E+00  3.926033E+00  4.375924E+00  4.814308E+00  5.249517E+00  5.688046E+00  6.135061E+00
 6.594701E+00  7.070256E+00  7.564256E+00  8.078491E+00  8.613994E+00  9.170985E+00  9.748808E+00  1.034586E+01  1.095956E+01  1.158491E+01


SCALARS SiO2(am)_Area        float 1
LOOKUP_TABLE default
 1.429677E+05  1.361014E+05  1.316655E+05  1.284615E+05  1.259982E+05  1.240287E+05  1.224123E+05  1.210615E+05  1.199186E+05  1.189434E+05
 1.181071E+05  1.173880E+05  1.167697E+05  1.162392E+05  1.157862E+05  1.154023E+05  1.150805E+05  1.148147E+05  1.145997E+05  1.144314E+05


SCALARS Material_ID          int 1
LOOKUP_TABLE default
  1
  1
  1
  1
  1
  1
  1
  1
  1
  1
  1
  1
  1
  1
  1
  1
  1
  1
  1
  1


