# vtk DataFile Version 2.0
PFLOTRAN output
ASCII
DATASET UNSTRUCTURED_GRID
POINTS           84 float
 0.000000E+00  0.000000E+00  0.000000E+00
 7.580000E-03  0.000000E+00  0.000000E+00
 1.516000E-02  0.000000E+00  0.000000E+00
 2.274000E-02  0.000000E+00  0.000000E+00
 3.032000E-02  0.000000E+00  0.000000E+00
 3.790000E-02  0.000000E+00  0.000000E+00
 4.548000E-02  0.000000E+00  0.000000E+00
 5.306000E-02  0.000000E+00  0.000000E+00
 6.064000E-02  0.000000E+00  0.000000E+00
 6.822000E-02  0.000000E+00  0.000000E+00
 7.580000E-02  0.000000E+00  0.000000E+00
 8.338000E-02  0.000000E+00  0.000000E+00
 9.096000E-02  0.000000E+00  0.000000E+00
 9.854000E-02  0.000000E+00  0.000000E+00
 1.061200E-01  0.000000E+00  0.000000E+00
 1.137000E-01  0.000000E+00  0.000000E+00
 1.212800E-01  0.000000E+00  0.000000E+00
 1.288600E-01  0.000000E+00  0.000000E+00
 1.364400E-01  0.000000E+00  0.000000E+00
 1.440200E-01  0.000000E+00  0.000000E+00
 1.516000E-01  0.000000E+00  0.000000E+00
 0.000000E+00  1.125000E-02  0.000000E+00
 7.580000E-03  1.125000E-02  0.000000E+00
 1.516000E-02  1.125000E-02  0.000000E+00
 2.274000E-02  1.125000E-02  0.000000E+00
 3.032000E-02  1.125000E-02  0.000000E+00
 3.790000E-02  1.125000E-02  0.000000E+00
 4.548000E-02  1.125000E-02  0.000000E+00
 5.306000E-02  1.125000E-02  0.000000E+00
 6.064000E-02  1.125000E-02  0.000000E+00
 6.822000E-02  1.125000E-02  0.000000E+00
 7.580000E-02  1.125000E-02  0.000000E+00
 8.338000E-02  1.125000E-02  0.000000E+00
 9.096000E-02  1.125000E-02  0.000000E+00
 9.854000E-02  1.125000E-02  0.000000E+00
 1.061200E-01  1.125000E-02  0.000000E+00
 1.137000E-01  1.125000E-02  0.000000E+00
 1.212800E-01  1.125000E-02  0.000000E+00
 1.288600E-01  1.125000E-02  0.000000E+00
 1.364400E-01  1.125000E-02  0.000000E+00
 1.440200E-01  1.125000E-02  0.000000E+00
 1.516000E-01  1.125000E-02  0.000000E+00
 0.000000E+00  0.000000E+00  1.125000E-02
 7.580000E-03  0.000000E+00  1.125000E-02
 1.516000E-02  0.000000E+00  1.125000E-02
 2.274000E-02  0.000000E+00  1.125000E-02
 3.032000E-02  0.000000E+00  1.125000E-02
 3.790000E-02  0.000000E+00  1.125000E-02
 4.548000E-02  0.000000E+00  1.125000E-02
 5.306000E-02  0.000000E+00  1.125000E-02
 6.064000E-02  0.000000E+00  1.125000E-02
 6.822000E-02  0.000000E+00  1.125000E-02
 7.580000E-02  0.000000E+00  1.125000E-02
 8.338000E-02  0.000000E+00  1.125000E-02
 9.096000E-02  0.000000E+00  1.125000E-02
 9.854000E-02  0.000000E+00  1.125000E-02
 1.061200E-01  0.000000E+00  1.125000E-02
 1.137000E-01  0.000000E+00  1.125000E-02
 1.212800E-01  0.000000E+00  1.125000E-02
 1.288600E-01  0.000000E+00  1.125000E-02
 1.364400E-01  0.000000E+00  1.125000E-02
 1.440200E-01  0.000000E+00  1.125000E-02
 1.516000E-01  0.000000E+00  1.125000E-02
 0.000000E+00  1.125000E-02  1.125000E-02
 7.580000E-03  1.125000E-02  1.125000E-02
 1.516000E-02  1.125000E-02  1.125000E-02
 2.274000E-02  1.125000E-02  1.125000E-02
 3.032000E-02  1.125000E-02  1.125000E-02
 3.790000E-02  1.125000E-02  1.125000E-02
 4.548000E-02  1.125000E-02  1.125000E-02
 5.306000E-02  1.125000E-02  1.125000E-02
 6.064000E-02  1.125000E-02  1.125000E-02
 6.822000E-02  1.125000E-02  1.125000E-02
 7.580000E-02  1.125000E-02  1.125000E-02
 8.338000E-02  1.125000E-02  1.125000E-02
 9.096000E-02  1.125000E-02  1.125000E-02
 9.854000E-02  1.125000E-02  1.125000E-02
 1.061200E-01  1.125000E-02  1.125000E-02
 1.137000E-01  1.125000E-02  1.125000E-02
 1.212800E-01  1.125000E-02  1.125000E-02
 1.288600E-01  1.125000E-02  1.125000E-02
 1.364400E-01  1.125000E-02  1.125000E-02
 1.440200E-01  1.125000E-02  1.125000E-02
 1.516000E-01  1.125000E-02  1.125000E-02
CELLS           20          180
8        0        1       22       21       42       43       64       63
8        1        2       23       22       43       44       65       64
8        2        3       24       23       44       45       66       65
8        3        4       25       24       45       46       67       66
8        4        5       26       25       46       47       68       67
8        5        6       27       26       47       48       69       68
8        6        7       28       27       48       49       70       69
8        7        8       29       28       49       50       71       70
8        8        9       30       29       50       51       72       71
8        9       10       31       30       51       52       73       72
8       10       11       32       31       52       53       74       73
8       11       12       33       32       53       54       75       74
8       12       13       34       33       54       55       76       75
8       13       14       35       34       55       56       77       76
8       14       15       36       35       56       57       78       77
8       15       16       37       36       57       58       79       78
8       16       17       38       37       58       59       80       79
8       17       18       39       38       59       60       81       80
8       18       19       40       39       60       61       82       81
8       19       20       41       40       61       62       83       82

CELL_TYPES           20
12
12
12
12
12
12
12
12
12
12
12
12
12
12
12
12
12
12
12
12

CELL_DATA       20
SCALARS Porosity             float 1
LOOKUP_TABLE default
 9.894060E-01  9.891093E-01  9.888656E-01  9.886562E-01  9.884717E-01  9.883062E-01  9.881556E-01  9.880171E-01  9.878885E-01  9.877680E-01
 9.876543E-01  9.875464E-01  9.874434E-01  9.873444E-01  9.872490E-01  9.871566E-01  9.870668E-01  9.869792E-01  9.868934E-01  9.868093E-01


SCALARS Permeability_X       float 1
LOOKUP_TABLE default
 1.000000E-12  1.000000E-12  1.000000E-12  1.000000E-12  1.000000E-12  1.000000E-12  1.000000E-12  1.000000E-12  1.000000E-12  1.000000E-12
 1.000000E-12  1.000000E-12  1.000000E-12  1.000000E-12  1.000000E-12  1.000000E-12  1.000000E-12  1.000000E-12  1.000000E-12  1.000000E-12


SCALARS Liquid_Pressure      float 1
LOOKUP_TABLE default
 7.500296E+06  7.500281E+06  7.500266E+06  7.500250E+06  7.500235E+06  7.500220E+06  7.500205E+06  7.500190E+06  7.500175E+06  7.500159E+06
 7.500144E+06  7.500129E+06  7.500114E+06  7.500099E+06  7.500083E+06  7.500068E+06  7.500053E+06  7.500038E+06  7.500023E+06  7.500008E+06


SCALARS Temperature          float 1
LOOKUP_TABLE default
 1.500000E+02  1.500000E+02  1.500000E+02  1.500000E+02  1.500000E+02  1.499999E+02  1.499999E+02  1.499999E+02  1.499999E+02  1.499999E+02
 1.499999E+02  1.499999E+02  1.499999E+02  1.499999E+02  1.499999E+02  1.499999E+02  1.499999E+02  1.499999E+02  1.499999E+02  1.500000E+02


SCALARS pH                   float 1
LOOKUP_TABLE default
 4.778453E+00  4.835342E+00  4.890097E+00  4.941767E+00  4.990092E+00  5.035150E+00  5.077166E+00  5.116417E+00  5.153186E+00  5.187740E+00
 5.220322E+00  5.251146E+00  5.280405E+00  5.308265E+00  5.334872E+00  5.360356E+00  5.384828E+00  5.408390E+00  5.431127E+00  5.453061E+00


SCALARS Total_H+             float 1
LOOKUP_TABLE default
-3.501649E-04 -3.789275E-04 -4.097566E-04 -4.421060E-04 -4.756187E-04 -5.100563E-04 -5.452582E-04 -5.811166E-04 -6.175609E-04 -6.545461E-04
-6.920463E-04 -7.300495E-04 -7.685539E-04 -8.075658E-04 -8.470973E-04 -8.871657E-04 -9.277918E-04 -9.690000E-04 -1.010817E-03 -1.053158E-03


SCALARS Total_SiO2(aq)       float 1
LOOKUP_TABLE default
 1.405443E-02  1.404929E-02  1.404394E-02  1.403836E-02  1.403254E-02  1.402649E-02  1.402019E-02  1.401366E-02  1.400689E-02  1.399991E-02
 1.399270E-02  1.398527E-02  1.397763E-02  1.396978E-02  1.396172E-02  1.395346E-02  1.394499E-02  1.393633E-02  1.392748E-02  1.391845E-02


SCALARS Total_Al+++          float 1
LOOKUP_TABLE default
 6.015348E-05  6.015348E-05  6.015348E-05  6.015348E-05  6.015348E-05  6.015348E-05  6.015348E-05  6.015348E-05  6.015348E-05  6.015348E-05
 6.015348E-05  6.015348E-05  6.015348E-05  6.015348E-05  6.015348E-05  6.015348E-05  6.015348E-05  6.015348E-05  6.015348E-05  6.015348E-05


SCALARS Total_Ca++           float 1
LOOKUP_TABLE default
 8.254953E-05  9.693081E-05  1.123454E-04  1.285201E-04  1.452764E-04  1.624952E-04  1.800962E-04  1.980254E-04  2.162475E-04  2.347401E-04
 2.534902E-04  2.724918E-04  2.917440E-04  3.112500E-04  3.310157E-04  3.510499E-04  3.713630E-04  3.919671E-04  4.128754E-04  4.340460E-04


SCALARS Total_Cl-            float 1
LOOKUP_TABLE default
 2.513233E-02  2.513233E-02  2.513233E-02  2.513233E-02  2.513233E-02  2.513233E-02  2.513233E-02  2.513233E-02  2.513233E-02  2.513233E-02
 2.513233E-02  2.513233E-02  2.513233E-02  2.513233E-02  2.513233E-02  2.513233E-02  2.513233E-02  2.513233E-02  2.513233E-02  2.513233E-02


SCALARS Total_CO2(aq)        float 1
LOOKUP_TABLE default
 1.357925E-02  1.359363E-02  1.360905E-02  1.362522E-02  1.364198E-02  1.365920E-02  1.367680E-02  1.369473E-02  1.371295E-02  1.373144E-02
 1.375019E-02  1.376919E-02  1.378844E-02  1.380795E-02  1.382772E-02  1.384775E-02  1.386806E-02  1.388867E-02  1.390957E-02  1.393075E-02


SCALARS Total_Na+            float 1
LOOKUP_TABLE default
 3.122900E-02  3.122900E-02  3.122900E-02  3.122900E-02  3.122900E-02  3.122900E-02  3.122900E-02  3.122900E-02  3.122900E-02  3.122900E-02
 3.122900E-02  3.122900E-02  3.122900E-02  3.122900E-02  3.122900E-02  3.122900E-02  3.122900E-02  3.122900E-02  3.122900E-02  3.122900E-02


SCALARS Total_K+             float 1
LOOKUP_TABLE default
 2.655416E-03  2.655416E-03  2.655416E-03  2.655416E-03  2.655416E-03  2.655416E-03  2.655416E-03  2.655416E-03  2.655416E-03  2.655416E-03
 2.655416E-03  2.655416E-03  2.655416E-03  2.655416E-03  2.655416E-03  2.655416E-03  2.655416E-03  2.655416E-03  2.655416E-03  2.655416E-03


SCALARS Total_Mg++           float 1
LOOKUP_TABLE default
 8.216757E-07  8.216757E-07  8.216757E-07  8.216757E-07  8.216757E-07  8.216757E-07  8.216757E-07  8.216757E-07  8.216757E-07  8.216757E-07
 8.216757E-07  8.216757E-07  8.216757E-07  8.216756E-07  8.216756E-07  8.216756E-07  8.216756E-07  8.216756E-07  8.216756E-07  8.216756E-07


SCALARS Total_Fe++           float 1
LOOKUP_TABLE default
 1.251593E-06  1.251593E-06  1.251593E-06  1.251593E-06  1.251593E-06  1.251593E-06  1.251593E-06  1.251593E-06  1.251593E-06  1.251593E-06
 1.251593E-06  1.251593E-06  1.251593E-06  1.251593E-06  1.251593E-06  1.251592E-06  1.251592E-06  1.251592E-06  1.251592E-06  1.251592E-06


SCALARS Total_Cu++           float 1
LOOKUP_TABLE default
 9.952832E-11  9.952832E-11  9.952832E-11  9.952832E-11  9.952832E-11  9.952832E-11  9.952832E-11  9.952832E-11  9.952832E-11  9.952832E-11
 9.952832E-11  9.952832E-11  9.952832E-11  9.952832E-11  9.952832E-11  9.952832E-11  9.952832E-11  9.952832E-11  9.952832E-11  9.952832E-11


SCALARS Total_SO4--          float 1
LOOKUP_TABLE default
 4.376188E-03  4.376188E-03  4.376188E-03  4.376188E-03  4.376188E-03  4.376188E-03  4.376188E-03  4.376188E-03  4.376188E-03  4.376188E-03
 4.376188E-03  4.376188E-03  4.376188E-03  4.376188E-03  4.376188E-03  4.376188E-03  4.376188E-03  4.376188E-03  4.376188E-03  4.376188E-03


SCALARS Total_Tracer         float 1
LOOKUP_TABLE default
 9.952832E-11  9.952832E-11  9.952832E-11  9.952832E-11  9.952832E-11  9.952832E-11  9.952832E-11  9.952832E-11  9.952832E-11  9.952832E-11
 9.952832E-11  9.952832E-11  9.952832E-11  9.952832E-11  9.952832E-11  9.952832E-11  9.952832E-11  9.952832E-11  9.952832E-11  9.952832E-11


SCALARS Active_Gas_CO2(g)    float 1
LOOKUP_TABLE default
 0.000000E+00  0.000000E+00  0.000000E+00  0.000000E+00  0.000000E+00  0.000000E+00  0.000000E+00  0.000000E+00  0.000000E+00  0.000000E+00
 0.000000E+00  0.000000E+00  0.000000E+00  0.000000E+00  0.000000E+00  0.000000E+00  0.000000E+00  0.000000E+00  0.000000E+00  0.000000E+00


SCALARS HCO3-                float 1
LOOKUP_TABLE default
 1.830637E-04  2.085161E-04  2.363206E-04  2.659156E-04  2.969031E-04  3.290005E-04  3.620079E-04  3.957849E-04  4.302342E-04  4.652895E-04
 5.009076E-04  5.370622E-04  5.737396E-04  6.109361E-04  6.486553E-04  6.869068E-04  7.257048E-04  7.650674E-04  8.050155E-04  8.454649E-04


SCALARS H2SiO4--             float 1
LOOKUP_TABLE default
 4.333631E-13  5.630028E-13  7.242720E-13  9.185808E-13  1.147201E-12  1.411309E-12  1.712044E-12  2.050561E-12  2.428068E-12  2.845858E-12
 3.305330E-12  3.808005E-12  4.355544E-12  4.949757E-12  5.592620E-12  6.286282E-12  7.033079E-12  7.835544E-12  8.696417E-12  9.616148E-12


SCALARS H3SiO4-              float 1
LOOKUP_TABLE default
 1.453721E-06  1.656592E-06  1.878502E-06  2.115022E-06  2.363016E-06  2.620258E-06  2.885174E-06  3.156663E-06  3.433961E-06  3.716556E-06
 4.004116E-06  4.296445E-06  4.593451E-06  4.895122E-06  5.201507E-06  5.512705E-06  5.828853E-06  6.150125E-06  6.476715E-06  6.807965E-06


SCALARS Calcite_VF           float 1
LOOKUP_TABLE default
 9.914181E-03  1.012849E-02  1.030250E-02  1.045107E-02  1.058146E-02  1.069815E-02  1.080419E-02  1.090180E-02  1.099266E-02  1.107806E-02
 1.115902E-02  1.123637E-02  1.131078E-02  1.138279E-02  1.145288E-02  1.152142E-02  1.158877E-02  1.165520E-02  1.172098E-02  1.178617E-02


SCALARS SiO2(am)_VF          float 1
LOOKUP_TABLE default
 6.750116E-04  7.567206E-04  8.259285E-04  8.864422E-04  9.403770E-04  9.890865E-04  1.033507E-03  1.074321E-03  1.112042E-03  1.147068E-03
 1.179715E-03  1.210238E-03  1.238847E-03  1.265713E-03  1.290983E-03  1.314780E-03  1.337208E-03  1.358358E-03  1.378309E-03  1.397083E-03


SCALARS Calcite_Rate         float 1
LOOKUP_TABLE default
-1.716787E-05 -1.913665E-05 -2.050565E-05 -2.151022E-05 -2.227683E-05 -2.288437E-05 -2.338482E-05 -2.381349E-05 -2.419488E-05 -2.454638E-05
-2.488052E-05 -2.520653E-05 -2.553129E-05 -2.586005E-05 -2.619686E-05 -2.654494E-05 -2.690685E-05 -2.728469E-05 -2.768018E-05 -2.809381E-05


SCALARS SiO2(am)_Rate        float 1
LOOKUP_TABLE default
 6.604932E-06  6.837548E-06  7.121691E-06  7.428955E-06  7.745266E-06  8.063159E-06  8.378619E-06  8.689543E-06  8.994920E-06  9.294374E-06
 9.587896E-06  9.875694E-06  1.015809E-05  1.043548E-05  1.070828E-05  1.097691E-05  1.124180E-05  1.150335E-05  1.176197E-05  1.201735E-05


SCALARS Calcite_Area         float 1
LOOKUP_TABLE default
 3.187005E-01  3.949435E-01  4.684749E-01  5.407365E-01  6.122348E-01  6.832919E-01  7.541969E-01  8.252391E-01  8.967140E-01  9.689222E-01
 1.042169E+00  1.116765E+00  1.193024E+00  1.271268E+00  1.351829E+00  1.435047E+00  1.521278E+00  1.610897E+00  1.704296E+00  1.801640E+00


SCALARS SiO2(am)_Area        float 1
LOOKUP_TABLE default
 1.141142E+05  1.098409E+05  1.066784E+05  1.041908E+05  1.021580E+05  1.004518E+05  9.899104E+04  9.772107E+04  9.660344E+04  9.561013E+04
 9.472014E+04  9.391736E+04  9.318918E+04  9.252554E+04  9.191833E+04  9.136092E+04  9.084780E+04  9.037440E+04  8.993684E+04  8.953281E+04


SCALARS Material_ID          int 1
LOOKUP_TABLE default
  1
  1
  1
  1
  1
  1
  1
  1
  1
  1
  1
  1
  1
  1
  1
  1
  1
  1
  1
  1


