# vtk DataFile Version 2.0
PFLOTRAN output
ASCII
DATASET UNSTRUCTURED_GRID
POINTS           84 float
 0.000000E+00  0.000000E+00  0.000000E+00
 7.580000E-03  0.000000E+00  0.000000E+00
 1.516000E-02  0.000000E+00  0.000000E+00
 2.274000E-02  0.000000E+00  0.000000E+00
 3.032000E-02  0.000000E+00  0.000000E+00
 3.790000E-02  0.000000E+00  0.000000E+00
 4.548000E-02  0.000000E+00  0.000000E+00
 5.306000E-02  0.000000E+00  0.000000E+00
 6.064000E-02  0.000000E+00  0.000000E+00
 6.822000E-02  0.000000E+00  0.000000E+00
 7.580000E-02  0.000000E+00  0.000000E+00
 8.338000E-02  0.000000E+00  0.000000E+00
 9.096000E-02  0.000000E+00  0.000000E+00
 9.854000E-02  0.000000E+00  0.000000E+00
 1.061200E-01  0.000000E+00  0.000000E+00
 1.137000E-01  0.000000E+00  0.000000E+00
 1.212800E-01  0.000000E+00  0.000000E+00
 1.288600E-01  0.000000E+00  0.000000E+00
 1.364400E-01  0.000000E+00  0.000000E+00
 1.440200E-01  0.000000E+00  0.000000E+00
 1.516000E-01  0.000000E+00  0.000000E+00
 0.000000E+00  1.125000E-02  0.000000E+00
 7.580000E-03  1.125000E-02  0.000000E+00
 1.516000E-02  1.125000E-02  0.000000E+00
 2.274000E-02  1.125000E-02  0.000000E+00
 3.032000E-02  1.125000E-02  0.000000E+00
 3.790000E-02  1.125000E-02  0.000000E+00
 4.548000E-02  1.125000E-02  0.000000E+00
 5.306000E-02  1.125000E-02  0.000000E+00
 6.064000E-02  1.125000E-02  0.000000E+00
 6.822000E-02  1.125000E-02  0.000000E+00
 7.580000E-02  1.125000E-02  0.000000E+00
 8.338000E-02  1.125000E-02  0.000000E+00
 9.096000E-02  1.125000E-02  0.000000E+00
 9.854000E-02  1.125000E-02  0.000000E+00
 1.061200E-01  1.125000E-02  0.000000E+00
 1.137000E-01  1.125000E-02  0.000000E+00
 1.212800E-01  1.125000E-02  0.000000E+00
 1.288600E-01  1.125000E-02  0.000000E+00
 1.364400E-01  1.125000E-02  0.000000E+00
 1.440200E-01  1.125000E-02  0.000000E+00
 1.516000E-01  1.125000E-02  0.000000E+00
 0.000000E+00  0.000000E+00  1.125000E-02
 7.580000E-03  0.000000E+00  1.125000E-02
 1.516000E-02  0.000000E+00  1.125000E-02
 2.274000E-02  0.000000E+00  1.125000E-02
 3.032000E-02  0.000000E+00  1.125000E-02
 3.790000E-02  0.000000E+00  1.125000E-02
 4.548000E-02  0.000000E+00  1.125000E-02
 5.306000E-02  0.000000E+00  1.125000E-02
 6.064000E-02  0.000000E+00  1.125000E-02
 6.822000E-02  0.000000E+00  1.125000E-02
 7.580000E-02  0.000000E+00  1.125000E-02
 8.338000E-02  0.000000E+00  1.125000E-02
 9.096000E-02  0.000000E+00  1.125000E-02
 9.854000E-02  0.000000E+00  1.125000E-02
 1.061200E-01  0.000000E+00  1.125000E-02
 1.137000E-01  0.000000E+00  1.125000E-02
 1.212800E-01  0.000000E+00  1.125000E-02
 1.288600E-01  0.000000E+00  1.125000E-02
 1.364400E-01  0.000000E+00  1.125000E-02
 1.440200E-01  0.000000E+00  1.125000E-02
 1.516000E-01  0.000000E+00  1.125000E-02
 0.000000E+00  1.125000E-02  1.125000E-02
 7.580000E-03  1.125000E-02  1.125000E-02
 1.516000E-02  1.125000E-02  1.125000E-02
 2.274000E-02  1.125000E-02  1.125000E-02
 3.032000E-02  1.125000E-02  1.125000E-02
 3.790000E-02  1.125000E-02  1.125000E-02
 4.548000E-02  1.125000E-02  1.125000E-02
 5.306000E-02  1.125000E-02  1.125000E-02
 6.064000E-02  1.125000E-02  1.125000E-02
 6.822000E-02  1.125000E-02  1.125000E-02
 7.580000E-02  1.125000E-02  1.125000E-02
 8.338000E-02  1.125000E-02  1.125000E-02
 9.096000E-02  1.125000E-02  1.125000E-02
 9.854000E-02  1.125000E-02  1.125000E-02
 1.061200E-01  1.125000E-02  1.125000E-02
 1.137000E-01  1.125000E-02  1.125000E-02
 1.212800E-01  1.125000E-02  1.125000E-02
 1.288600E-01  1.125000E-02  1.125000E-02
 1.364400E-01  1.125000E-02  1.125000E-02
 1.440200E-01  1.125000E-02  1.125000E-02
 1.516000E-01  1.125000E-02  1.125000E-02
CELLS           20          180
8        0        1       22       21       42       43       64       63
8        1        2       23       22       43       44       65       64
8        2        3       24       23       44       45       66       65
8        3        4       25       24       45       46       67       66
8        4        5       26       25       46       47       68       67
8        5        6       27       26       47       48       69       68
8        6        7       28       27       48       49       70       69
8        7        8       29       28       49       50       71       70
8        8        9       30       29       50       51       72       71
8        9       10       31       30       51       52       73       72
8       10       11       32       31       52       53       74       73
8       11       12       33       32       53       54       75       74
8       12       13       34       33       54       55       76       75
8       13       14       35       34       55       56       77       76
8       14       15       36       35       56       57       78       77
8       15       16       37       36       57       58       79       78
8       16       17       38       37       58       59       80       79
8       17       18       39       38       59       60       81       80
8       18       19       40       39       60       61       82       81
8       19       20       41       40       61       62       83       82

CELL_TYPES           20
12
12
12
12
12
12
12
12
12
12
12
12
12
12
12
12
12
12
12
12

CELL_DATA       20
SCALARS Porosity             float 1
LOOKUP_TABLE default
 9.892288E-01  9.889067E-01  9.886473E-01  9.884278E-01  9.882367E-01  9.880669E-01  9.879134E-01  9.877728E-01  9.876426E-01  9.875208E-01
 9.874059E-01  9.872967E-01  9.871923E-01  9.870919E-01  9.869948E-01  9.869004E-01  9.868083E-01  9.867181E-01  9.866294E-01  9.865422E-01


SCALARS Permeability_X       float 1
LOOKUP_TABLE default
 1.000000E-12  1.000000E-12  1.000000E-12  1.000000E-12  1.000000E-12  1.000000E-12  1.000000E-12  1.000000E-12  1.000000E-12  1.000000E-12
 1.000000E-12  1.000000E-12  1.000000E-12  1.000000E-12  1.000000E-12  1.000000E-12  1.000000E-12  1.000000E-12  1.000000E-12  1.000000E-12


SCALARS Liquid_Pressure      float 1
LOOKUP_TABLE default
 7.500296E+06  7.500281E+06  7.500266E+06  7.500250E+06  7.500235E+06  7.500220E+06  7.500205E+06  7.500190E+06  7.500175E+06  7.500159E+06
 7.500144E+06  7.500129E+06  7.500114E+06  7.500099E+06  7.500083E+06  7.500068E+06  7.500053E+06  7.500038E+06  7.500023E+06  7.500008E+06


SCALARS Temperature          float 1
LOOKUP_TABLE default
 1.500000E+02  1.500000E+02  1.500000E+02  1.500000E+02  1.499999E+02  1.499999E+02  1.499999E+02  1.499999E+02  1.499999E+02  1.499999E+02
 1.499999E+02  1.499999E+02  1.499999E+02  1.499999E+02  1.499999E+02  1.499999E+02  1.499999E+02  1.499999E+02  1.499999E+02  1.500000E+02


SCALARS pH                   float 1
LOOKUP_TABLE default
 4.791498E+00  4.859917E+00  4.924086E+00  4.983222E+00  5.037427E+00  5.087135E+00  5.132864E+00  5.175119E+00  5.214353E+00  5.250960E+00
 5.285278E+00  5.317594E+00  5.348152E+00  5.377161E+00  5.404799E+00  5.431218E+00  5.456551E+00  5.480910E+00  5.504396E+00  5.527035E+00


SCALARS Total_H+             float 1
LOOKUP_TABLE default
-3.564915E-04 -3.923549E-04 -4.306535E-04 -4.706480E-04 -5.118858E-04 -5.540837E-04 -5.970643E-04 -6.407178E-04 -6.849794E-04 -7.298150E-04
-7.752115E-04 -8.211709E-04 -8.677059E-04 -9.148370E-04 -9.625906E-04 -1.010998E-03 -1.060092E-03 -1.109910E-03 -1.160489E-03 -1.211731E-03


SCALARS Total_SiO2(aq)       float 1
LOOKUP_TABLE default
 1.405416E-02  1.404868E-02  1.404291E-02  1.403684E-02  1.403047E-02  1.402379E-02  1.401682E-02  1.400956E-02  1.400202E-02  1.399421E-02
 1.398614E-02  1.397780E-02  1.396921E-02  1.396038E-02  1.395130E-02  1.394198E-02  1.393242E-02  1.392263E-02  1.391261E-02  1.390239E-02


SCALARS Total_Al+++          float 1
LOOKUP_TABLE default
 6.015348E-05  6.015348E-05  6.015348E-05  6.015348E-05  6.015348E-05  6.015348E-05  6.015348E-05  6.015348E-05  6.015348E-05  6.015348E-05
 6.015348E-05  6.015348E-05  6.015348E-05  6.015348E-05  6.015348E-05  6.015348E-05  6.015348E-05  6.015348E-05  6.015348E-05  6.015348E-05


SCALARS Total_Ca++           float 1
LOOKUP_TABLE default
 8.571283E-05  1.036445E-04  1.227938E-04  1.427911E-04  1.634100E-04  1.845089E-04  2.059992E-04  2.278260E-04  2.499568E-04  2.723746E-04
 2.950728E-04  3.180525E-04  3.413200E-04  3.648855E-04  3.887624E-04  4.129659E-04  4.375130E-04  4.624219E-04  4.877113E-04  5.133325E-04


SCALARS Total_Cl-            float 1
LOOKUP_TABLE default
 2.513233E-02  2.513233E-02  2.513233E-02  2.513233E-02  2.513233E-02  2.513233E-02  2.513233E-02  2.513233E-02  2.513233E-02  2.513233E-02
 2.513233E-02  2.513233E-02  2.513233E-02  2.513233E-02  2.513233E-02  2.513233E-02  2.513233E-02  2.513233E-02  2.513233E-02  2.513233E-02


SCALARS Total_CO2(aq)        float 1
LOOKUP_TABLE default
 1.358241E-02  1.360034E-02  1.361949E-02  1.363949E-02  1.366011E-02  1.368121E-02  1.370270E-02  1.372453E-02  1.374666E-02  1.376907E-02
 1.379177E-02  1.381475E-02  1.383802E-02  1.386159E-02  1.388546E-02  1.390967E-02  1.393421E-02  1.395912E-02  1.398441E-02  1.401003E-02


SCALARS Total_Na+            float 1
LOOKUP_TABLE default
 3.122900E-02  3.122900E-02  3.122900E-02  3.122900E-02  3.122900E-02  3.122900E-02  3.122900E-02  3.122900E-02  3.122900E-02  3.122900E-02
 3.122900E-02  3.122900E-02  3.122900E-02  3.122900E-02  3.122900E-02  3.122900E-02  3.122900E-02  3.122900E-02  3.122900E-02  3.122900E-02


SCALARS Total_K+             float 1
LOOKUP_TABLE default
 2.655416E-03  2.655416E-03  2.655416E-03  2.655416E-03  2.655416E-03  2.655416E-03  2.655416E-03  2.655416E-03  2.655416E-03  2.655416E-03
 2.655416E-03  2.655416E-03  2.655416E-03  2.655416E-03  2.655416E-03  2.655416E-03  2.655416E-03  2.655416E-03  2.655416E-03  2.655415E-03


SCALARS Total_Mg++           float 1
LOOKUP_TABLE default
 8.216757E-07  8.216757E-07  8.216757E-07  8.216757E-07  8.216757E-07  8.216757E-07  8.216757E-07  8.216757E-07  8.216757E-07  8.216757E-07
 8.216757E-07  8.216757E-07  8.216757E-07  8.216756E-07  8.216756E-07  8.216756E-07  8.216756E-07  8.216756E-07  8.216756E-07  8.216756E-07


SCALARS Total_Fe++           float 1
LOOKUP_TABLE default
 1.251593E-06  1.251593E-06  1.251593E-06  1.251593E-06  1.251593E-06  1.251593E-06  1.251593E-06  1.251593E-06  1.251593E-06  1.251593E-06
 1.251593E-06  1.251593E-06  1.251593E-06  1.251593E-06  1.251593E-06  1.251592E-06  1.251592E-06  1.251592E-06  1.251592E-06  1.251592E-06


SCALARS Total_Cu++           float 1
LOOKUP_TABLE default
 9.952832E-11  9.952832E-11  9.952832E-11  9.952832E-11  9.952832E-11  9.952832E-11  9.952832E-11  9.952832E-11  9.952832E-11  9.952832E-11
 9.952832E-11  9.952832E-11  9.952832E-11  9.952832E-11  9.952832E-11  9.952832E-11  9.952832E-11  9.952832E-11  9.952832E-11  9.952832E-11


SCALARS Total_SO4--          float 1
LOOKUP_TABLE default
 4.376188E-03  4.376188E-03  4.376188E-03  4.376188E-03  4.376188E-03  4.376188E-03  4.376188E-03  4.376188E-03  4.376188E-03  4.376188E-03
 4.376188E-03  4.376188E-03  4.376188E-03  4.376188E-03  4.376188E-03  4.376188E-03  4.376188E-03  4.376188E-03  4.376188E-03  4.376188E-03


SCALARS Total_Tracer         float 1
LOOKUP_TABLE default
 9.952832E-11  9.952832E-11  9.952832E-11  9.952832E-11  9.952832E-11  9.952832E-11  9.952832E-11  9.952832E-11  9.952832E-11  9.952832E-11
 9.952832E-11  9.952832E-11  9.952832E-11  9.952832E-11  9.952832E-11  9.952832E-11  9.952832E-11  9.952832E-11  9.952832E-11  9.952832E-11


SCALARS Active_Gas_CO2(g)    float 1
LOOKUP_TABLE default
 0.000000E+00  0.000000E+00  0.000000E+00  0.000000E+00  0.000000E+00  0.000000E+00  0.000000E+00  0.000000E+00  0.000000E+00  0.000000E+00
 0.000000E+00  0.000000E+00  0.000000E+00  0.000000E+00  0.000000E+00  0.000000E+00  0.000000E+00  0.000000E+00  0.000000E+00  0.000000E+00


SCALARS HCO3-                float 1
LOOKUP_TABLE default
 1.886131E-04  2.205693E-04  2.553970E-04  2.922892E-04  3.307107E-04  3.703073E-04  4.108452E-04  4.521714E-04  4.941884E-04  5.368364E-04
 5.800820E-04  6.239111E-04  6.683230E-04  7.133267E-04  7.589391E-04  8.051820E-04  8.520815E-04  8.996666E-04  9.479681E-04  9.968878E-04


SCALARS H2SiO4--             float 1
LOOKUP_TABLE default
 4.601962E-13  6.304655E-13  8.469919E-13  1.111795E-12  1.426602E-12  1.792996E-12  2.212542E-12  2.686877E-12  3.217773E-12  3.807171E-12
 4.457220E-12  5.170291E-12  5.949004E-12  6.796236E-12  7.715140E-12  8.709158E-12  9.782029E-12  1.093781E-11  1.218085E-11  1.351223E-11


SCALARS H3SiO4-              float 1
LOOKUP_TABLE default
 1.498025E-06  1.752969E-06  2.031293E-06  2.326636E-06  2.634782E-06  2.952939E-06  3.279267E-06  3.612568E-06  3.952080E-06  4.297347E-06
 4.648125E-06  5.004320E-06  5.365955E-06  5.733133E-06  6.106018E-06  6.484826E-06  6.869804E-06  7.261232E-06  7.659406E-06  8.063561E-06


SCALARS Calcite_VF           float 1
LOOKUP_TABLE default
 1.015763E-02  1.040002E-02  1.059297E-02  1.075509E-02  1.089562E-02  1.102022E-02  1.113273E-02  1.123588E-02  1.133169E-02  1.142170E-02
 1.150710E-02  1.158883E-02  1.166766E-02  1.174419E-02  1.181896E-02  1.189239E-02  1.196484E-02  1.203664E-02  1.210805E-02  1.217914E-02


SCALARS SiO2(am)_VF          float 1
LOOKUP_TABLE default
 6.071719E-04  6.860938E-04  7.519959E-04  8.089972E-04  8.593607E-04  9.045144E-04  9.454319E-04  9.828119E-04  1.017175E-03  1.048920E-03
 1.078360E-03  1.105746E-03  1.131282E-03  1.155133E-03  1.177442E-03  1.198324E-03  1.217881E-03  1.236197E-03  1.253345E-03  1.269353E-03


SCALARS Calcite_Rate         float 1
LOOKUP_TABLE default
-2.138745E-05 -2.385790E-05 -2.546907E-05 -2.658712E-05 -2.740343E-05 -2.803104E-05 -2.854024E-05 -2.897632E-05 -2.936922E-05 -2.973927E-05
-3.010055E-05 -3.046302E-05 -3.083383E-05 -3.121822E-05 -3.162003E-05 -3.204214E-05 -3.248667E-05 -3.295517E-05 -3.344867E-05 -3.396667E-05


SCALARS SiO2(am)_Rate        float 1
LOOKUP_TABLE default
 6.960391E-06  7.294567E-06  7.679832E-06  8.082050E-06  8.485893E-06  8.884214E-06  9.273818E-06  9.653509E-06  1.002312E-05  1.038303E-05
 1.073384E-05  1.107629E-05  1.141116E-05  1.173920E-05  1.206114E-05  1.237768E-05  1.268946E-05  1.299708E-05  1.330107E-05  1.360116E-05


SCALARS Calcite_Area         float 1
LOOKUP_TABLE default
 4.068052E-01  5.153833E-01  6.196661E-01  7.215023E-01  8.216542E-01  9.207085E-01  1.019227E+00  1.117768E+00  1.216888E+00  1.317139E+00
 1.419068E+00  1.523221E+00  1.630148E+00  1.740404E+00  1.854559E+00  1.973201E+00  2.096942E+00  2.226425E+00  2.362329E+00  2.505008E+00


SCALARS SiO2(am)_Area        float 1
LOOKUP_TABLE default
 1.182359E+05  1.135065E+05  1.100840E+05  1.074328E+05  1.052904E+05  1.035078E+05  1.019924E+05  1.006827E+05  9.953626E+04  9.852228E+04
 9.761797E+04  9.680596E+04  9.607275E+04  9.540764E+04  9.480205E+04  9.424898E+04  9.374267E+04  9.327831E+04  9.285190E+04  9.246093E+04


SCALARS Material_ID          int 1
LOOKUP_TABLE default
  1
  1
  1
  1
  1
  1
  1
  1
  1
  1
  1
  1
  1
  1
  1
  1
  1
  1
  1
  1


