# vtk DataFile Version 2.0
PFLOTRAN output
ASCII
DATASET UNSTRUCTURED_GRID
POINTS           84 float
 0.000000E+00  0.000000E+00  0.000000E+00
 7.580000E-03  0.000000E+00  0.000000E+00
 1.516000E-02  0.000000E+00  0.000000E+00
 2.274000E-02  0.000000E+00  0.000000E+00
 3.032000E-02  0.000000E+00  0.000000E+00
 3.790000E-02  0.000000E+00  0.000000E+00
 4.548000E-02  0.000000E+00  0.000000E+00
 5.306000E-02  0.000000E+00  0.000000E+00
 6.064000E-02  0.000000E+00  0.000000E+00
 6.822000E-02  0.000000E+00  0.000000E+00
 7.580000E-02  0.000000E+00  0.000000E+00
 8.338000E-02  0.000000E+00  0.000000E+00
 9.096000E-02  0.000000E+00  0.000000E+00
 9.854000E-02  0.000000E+00  0.000000E+00
 1.061200E-01  0.000000E+00  0.000000E+00
 1.137000E-01  0.000000E+00  0.000000E+00
 1.212800E-01  0.000000E+00  0.000000E+00
 1.288600E-01  0.000000E+00  0.000000E+00
 1.364400E-01  0.000000E+00  0.000000E+00
 1.440200E-01  0.000000E+00  0.000000E+00
 1.516000E-01  0.000000E+00  0.000000E+00
 0.000000E+00  1.125000E-02  0.000000E+00
 7.580000E-03  1.125000E-02  0.000000E+00
 1.516000E-02  1.125000E-02  0.000000E+00
 2.274000E-02  1.125000E-02  0.000000E+00
 3.032000E-02  1.125000E-02  0.000000E+00
 3.790000E-02  1.125000E-02  0.000000E+00
 4.548000E-02  1.125000E-02  0.000000E+00
 5.306000E-02  1.125000E-02  0.000000E+00
 6.064000E-02  1.125000E-02  0.000000E+00
 6.822000E-02  1.125000E-02  0.000000E+00
 7.580000E-02  1.125000E-02  0.000000E+00
 8.338000E-02  1.125000E-02  0.000000E+00
 9.096000E-02  1.125000E-02  0.000000E+00
 9.854000E-02  1.125000E-02  0.000000E+00
 1.061200E-01  1.125000E-02  0.000000E+00
 1.137000E-01  1.125000E-02  0.000000E+00
 1.212800E-01  1.125000E-02  0.000000E+00
 1.288600E-01  1.125000E-02  0.000000E+00
 1.364400E-01  1.125000E-02  0.000000E+00
 1.440200E-01  1.125000E-02  0.000000E+00
 1.516000E-01  1.125000E-02  0.000000E+00
 0.000000E+00  0.000000E+00  1.125000E-02
 7.580000E-03  0.000000E+00  1.125000E-02
 1.516000E-02  0.000000E+00  1.125000E-02
 2.274000E-02  0.000000E+00  1.125000E-02
 3.032000E-02  0.000000E+00  1.125000E-02
 3.790000E-02  0.000000E+00  1.125000E-02
 4.548000E-02  0.000000E+00  1.125000E-02
 5.306000E-02  0.000000E+00  1.125000E-02
 6.064000E-02  0.000000E+00  1.125000E-02
 6.822000E-02  0.000000E+00  1.125000E-02
 7.580000E-02  0.000000E+00  1.125000E-02
 8.338000E-02  0.000000E+00  1.125000E-02
 9.096000E-02  0.000000E+00  1.125000E-02
 9.854000E-02  0.000000E+00  1.125000E-02
 1.061200E-01  0.000000E+00  1.125000E-02
 1.137000E-01  0.000000E+00  1.125000E-02
 1.212800E-01  0.000000E+00  1.125000E-02
 1.288600E-01  0.000000E+00  1.125000E-02
 1.364400E-01  0.000000E+00  1.125000E-02
 1.440200E-01  0.000000E+00  1.125000E-02
 1.516000E-01  0.000000E+00  1.125000E-02
 0.000000E+00  1.125000E-02  1.125000E-02
 7.580000E-03  1.125000E-02  1.125000E-02
 1.516000E-02  1.125000E-02  1.125000E-02
 2.274000E-02  1.125000E-02  1.125000E-02
 3.032000E-02  1.125000E-02  1.125000E-02
 3.790000E-02  1.125000E-02  1.125000E-02
 4.548000E-02  1.125000E-02  1.125000E-02
 5.306000E-02  1.125000E-02  1.125000E-02
 6.064000E-02  1.125000E-02  1.125000E-02
 6.822000E-02  1.125000E-02  1.125000E-02
 7.580000E-02  1.125000E-02  1.125000E-02
 8.338000E-02  1.125000E-02  1.125000E-02
 9.096000E-02  1.125000E-02  1.125000E-02
 9.854000E-02  1.125000E-02  1.125000E-02
 1.061200E-01  1.125000E-02  1.125000E-02
 1.137000E-01  1.125000E-02  1.125000E-02
 1.212800E-01  1.125000E-02  1.125000E-02
 1.288600E-01  1.125000E-02  1.125000E-02
 1.364400E-01  1.125000E-02  1.125000E-02
 1.440200E-01  1.125000E-02  1.125000E-02
 1.516000E-01  1.125000E-02  1.125000E-02
CELLS           20          180
8        0        1       22       21       42       43       64       63
8        1        2       23       22       43       44       65       64
8        2        3       24       23       44       45       66       65
8        3        4       25       24       45       46       67       66
8        4        5       26       25       46       47       68       67
8        5        6       27       26       47       48       69       68
8        6        7       28       27       48       49       70       69
8        7        8       29       28       49       50       71       70
8        8        9       30       29       50       51       72       71
8        9       10       31       30       51       52       73       72
8       10       11       32       31       52       53       74       73
8       11       12       33       32       53       54       75       74
8       12       13       34       33       54       55       76       75
8       13       14       35       34       55       56       77       76
8       14       15       36       35       56       57       78       77
8       15       16       37       36       57       58       79       78
8       16       17       38       37       58       59       80       79
8       17       18       39       38       59       60       81       80
8       18       19       40       39       60       61       82       81
8       19       20       41       40       61       62       83       82

CELL_TYPES           20
12
12
12
12
12
12
12
12
12
12
12
12
12
12
12
12
12
12
12
12

CELL_DATA       20
SCALARS Porosity             float 1
LOOKUP_TABLE default
 9.869224E-01  9.864943E-01  9.862315E-01  9.860413E-01  9.858899E-01  9.857620E-01  9.856494E-01  9.855477E-01  9.854542E-01  9.853674E-01
 9.852863E-01  9.852104E-01  9.851396E-01  9.850737E-01  9.850126E-01  9.849564E-01  9.849049E-01  9.848583E-01  9.848163E-01  9.847788E-01


SCALARS Permeability_X       float 1
LOOKUP_TABLE default
 1.000000E-12  1.000000E-12  1.000000E-12  1.000000E-12  1.000000E-12  1.000000E-12  1.000000E-12  1.000000E-12  1.000000E-12  1.000000E-12
 1.000000E-12  1.000000E-12  1.000000E-12  1.000000E-12  1.000000E-12  1.000000E-12  1.000000E-12  1.000000E-12  1.000000E-12  1.000000E-12


SCALARS Liquid_Pressure      float 1
LOOKUP_TABLE default
 7.500296E+06  7.500281E+06  7.500266E+06  7.500250E+06  7.500235E+06  7.500220E+06  7.500205E+06  7.500190E+06  7.500175E+06  7.500159E+06
 7.500144E+06  7.500129E+06  7.500114E+06  7.500099E+06  7.500083E+06  7.500068E+06  7.500053E+06  7.500038E+06  7.500023E+06  7.500008E+06


SCALARS Temperature          float 1
LOOKUP_TABLE default
 1.500000E+02  1.499999E+02  1.499998E+02  1.499998E+02  1.499997E+02  1.499997E+02  1.499996E+02  1.499996E+02  1.499996E+02  1.499995E+02
 1.499995E+02  1.499995E+02  1.499995E+02  1.499995E+02  1.499995E+02  1.499996E+02  1.499996E+02  1.499997E+02  1.499998E+02  1.499999E+02


SCALARS pH                   float 1
LOOKUP_TABLE default
 5.055851E+00  5.244600E+00  5.372109E+00  5.467513E+00  5.543379E+00  5.606129E+00  5.659433E+00  5.705560E+00  5.745996E+00  5.781757E+00
 5.813567E+00  5.841955E+00  5.867324E+00  5.889993E+00  5.910222E+00  5.928233E+00  5.944222E+00  5.958369E+00  5.970839E+00  5.981768E+00


SCALARS Total_H+             float 1
LOOKUP_TABLE default
-5.270147E-04 -7.217846E-04 -9.064476E-04 -1.082242E-03 -1.250393E-03 -1.411771E-03 -1.566905E-03 -1.716050E-03 -1.859242E-03 -1.996357E-03
-2.127158E-03 -2.251342E-03 -2.368583E-03 -2.478574E-03 -2.581061E-03 -2.675870E-03 -2.762934E-03 -2.842294E-03 -2.914106E-03 -2.978500E-03


SCALARS Total_SiO2(aq)       float 1
LOOKUP_TABLE default
 1.404939E-02  1.403719E-02  1.402325E-02  1.400785E-02  1.399120E-02  1.397344E-02  1.395468E-02  1.393504E-02  1.391458E-02  1.389339E-02
 1.387154E-02  1.384908E-02  1.382608E-02  1.380260E-02  1.377870E-02  1.375442E-02  1.372983E-02  1.370496E-02  1.367987E-02  1.365467E-02


SCALARS Total_Al+++          float 1
LOOKUP_TABLE default
 6.015348E-05  6.015348E-05  6.015348E-05  6.015348E-05  6.015348E-05  6.015349E-05  6.015349E-05  6.015349E-05  6.015349E-05  6.015349E-05
 6.015349E-05  6.015349E-05  6.015349E-05  6.015349E-05  6.015349E-05  6.015349E-05  6.015349E-05  6.015349E-05  6.015349E-05  6.015349E-05


SCALARS Total_Ca++           float 1
LOOKUP_TABLE default
 1.709744E-04  2.683594E-04  3.606909E-04  4.485879E-04  5.326634E-04  6.133523E-04  6.909197E-04  7.654921E-04  8.370880E-04  9.056455E-04
 9.710460E-04  1.033138E-03  1.091759E-03  1.146754E-03  1.197997E-03  1.245402E-03  1.288934E-03  1.328614E-03  1.364520E-03  1.396717E-03


SCALARS Total_Cl-            float 1
LOOKUP_TABLE default
 2.513233E-02  2.513233E-02  2.513233E-02  2.513233E-02  2.513233E-02  2.513233E-02  2.513233E-02  2.513233E-02  2.513233E-02  2.513233E-02
 2.513233E-02  2.513233E-02  2.513233E-02  2.513233E-02  2.513233E-02  2.513233E-02  2.513233E-02  2.513233E-02  2.513233E-02  2.513233E-02


SCALARS Total_CO2(aq)        float 1
LOOKUP_TABLE default
 1.366767E-02  1.376506E-02  1.385739E-02  1.394529E-02  1.402936E-02  1.411005E-02  1.418762E-02  1.426219E-02  1.433379E-02  1.440235E-02
 1.446775E-02  1.452984E-02  1.458846E-02  1.464345E-02  1.469470E-02  1.474210E-02  1.478563E-02  1.482531E-02  1.486122E-02  1.489342E-02


SCALARS Total_Na+            float 1
LOOKUP_TABLE default
 3.122900E-02  3.122900E-02  3.122900E-02  3.122900E-02  3.122900E-02  3.122900E-02  3.122900E-02  3.122900E-02  3.122900E-02  3.122900E-02
 3.122900E-02  3.122900E-02  3.122900E-02  3.122900E-02  3.122900E-02  3.122900E-02  3.122900E-02  3.122900E-02  3.122900E-02  3.122900E-02


SCALARS Total_K+             float 1
LOOKUP_TABLE default
 2.655416E-03  2.655416E-03  2.655416E-03  2.655416E-03  2.655416E-03  2.655416E-03  2.655416E-03  2.655416E-03  2.655416E-03  2.655416E-03
 2.655416E-03  2.655416E-03  2.655416E-03  2.655416E-03  2.655416E-03  2.655415E-03  2.655415E-03  2.655415E-03  2.655415E-03  2.655415E-03


SCALARS Total_Mg++           float 1
LOOKUP_TABLE default
 8.216757E-07  8.216757E-07  8.216757E-07  8.216757E-07  8.216757E-07  8.216757E-07  8.216757E-07  8.216757E-07  8.216757E-07  8.216757E-07
 8.216757E-07  8.216757E-07  8.216756E-07  8.216756E-07  8.216756E-07  8.216756E-07  8.216756E-07  8.216756E-07  8.216756E-07  8.216756E-07


SCALARS Total_Fe++           float 1
LOOKUP_TABLE default
 1.251593E-06  1.251593E-06  1.251593E-06  1.251593E-06  1.251593E-06  1.251593E-06  1.251593E-06  1.251593E-06  1.251593E-06  1.251593E-06
 1.251593E-06  1.251593E-06  1.251592E-06  1.251592E-06  1.251592E-06  1.251592E-06  1.251592E-06  1.251592E-06  1.251592E-06  1.251592E-06


SCALARS Total_Cu++           float 1
LOOKUP_TABLE default
 9.952832E-11  9.952832E-11  9.952832E-11  9.952832E-11  9.952832E-11  9.952832E-11  9.952832E-11  9.952832E-11  9.952832E-11  9.952832E-11
 9.952832E-11  9.952832E-11  9.952832E-11  9.952832E-11  9.952832E-11  9.952832E-11  9.952832E-11  9.952831E-11  9.952831E-11  9.952831E-11


SCALARS Total_SO4--          float 1
LOOKUP_TABLE default
 4.376188E-03  4.376188E-03  4.376188E-03  4.376188E-03  4.376188E-03  4.376188E-03  4.376188E-03  4.376188E-03  4.376188E-03  4.376188E-03
 4.376188E-03  4.376188E-03  4.376188E-03  4.376188E-03  4.376188E-03  4.376188E-03  4.376188E-03  4.376188E-03  4.376188E-03  4.376188E-03


SCALARS Total_Tracer         float 1
LOOKUP_TABLE default
 9.952832E-11  9.952832E-11  9.952832E-11  9.952832E-11  9.952832E-11  9.952832E-11  9.952832E-11  9.952832E-11  9.952832E-11  9.952832E-11
 9.952832E-11  9.952832E-11  9.952832E-11  9.952832E-11  9.952832E-11  9.952832E-11  9.952832E-11  9.952831E-11  9.952831E-11  9.952831E-11


SCALARS Active_Gas_CO2(g)    float 1
LOOKUP_TABLE default
 0.000000E+00  0.000000E+00  0.000000E+00  0.000000E+00  0.000000E+00  0.000000E+00  0.000000E+00  0.000000E+00  0.000000E+00  0.000000E+00
 0.000000E+00  0.000000E+00  0.000000E+00  0.000000E+00  0.000000E+00  0.000000E+00  0.000000E+00  0.000000E+00  0.000000E+00  0.000000E+00


SCALARS HCO3-                float 1
LOOKUP_TABLE default
 3.448755E-04  5.291806E-04  7.052910E-04  8.732010E-04  1.033729E-03  1.187576E-03  1.335198E-03  1.476823E-03  1.612492E-03  1.742105E-03
 1.865463E-03  1.982312E-03  2.092382E-03  2.195422E-03  2.291234E-03  2.379697E-03  2.460786E-03  2.534578E-03  2.601251E-03  2.660955E-03


SCALARS H2SiO4--             float 1
LOOKUP_TABLE default
 1.555137E-12  3.708649E-12  6.669937E-12  1.034574E-11  1.466484E-11  1.956663E-11  2.499323E-11  3.088430E-11  3.717367E-11  4.378756E-11
 5.064415E-11  5.765448E-11  6.472464E-11  7.175884E-11  7.866336E-11  8.535051E-11  9.174247E-11  9.777436E-11  1.033962E-10  1.085634E-10


SCALARS H3SiO4-              float 1
LOOKUP_TABLE default
 2.752702E-06  4.247896E-06  5.692384E-06  7.083735E-06  8.426596E-06  9.724992E-06  1.098114E-05  1.219549E-05  1.336695E-05  1.449326E-05
 1.557127E-05  1.659736E-05  1.756772E-05  1.847878E-05  1.932745E-05  2.011142E-05  2.082935E-05  2.148098E-05  2.206714E-05  2.258863E-05


SCALARS Calcite_VF           float 1
LOOKUP_TABLE default
 1.278171E-02  1.317646E-02  1.341626E-02  1.358886E-02  1.372605E-02  1.384237E-02  1.394533E-02  1.403914E-02  1.412621E-02  1.420794E-02
 1.428511E-02  1.435809E-02  1.442704E-02  1.449196E-02  1.455278E-02  1.460942E-02  1.466180E-02  1.470989E-02  1.475372E-02  1.479330E-02


SCALARS SiO2(am)_VF          float 1
LOOKUP_TABLE default
 2.461630E-04  2.827619E-04  3.091984E-04  3.298500E-04  3.466315E-04  3.605653E-04  3.722687E-04  3.821482E-04  3.904902E-04  3.975082E-04
 4.033687E-04  4.082077E-04  4.121395E-04  4.152633E-04  4.176672E-04  4.194306E-04  4.206255E-04  4.213181E-04  4.215686E-04  4.214341E-04


SCALARS Calcite_Rate         float 1
LOOKUP_TABLE default
-1.350175E-04 -1.292679E-04 -1.223712E-04 -1.163260E-04 -1.111196E-04 -1.065123E-04 -1.022765E-04 -9.822701E-05 -9.421996E-05 -9.014753E-05
-8.593446E-05 -8.153589E-05 -7.693567E-05 -7.214423E-05 -6.719535E-05 -6.214164E-05 -5.704882E-05 -5.198944E-05 -4.703651E-05 -4.226812E-05


SCALARS SiO2(am)_Rate        float 1
LOOKUP_TABLE default
 1.331595E-05  1.621044E-05  1.850984E-05  2.042675E-05  2.207660E-05  2.352678E-05  2.481918E-05  2.598097E-05  2.703030E-05  2.797954E-05
 2.883721E-05  2.960935E-05  3.030044E-05  3.091402E-05  3.145322E-05  3.192110E-05  3.232085E-05  3.265595E-05  3.293018E-05  3.314731E-05


SCALARS Calcite_Area         float 1
LOOKUP_TABLE default
 4.187596E+00  5.659324E+00  6.759312E+00  7.663875E+00  8.458102E+00  9.188156E+00  9.880769E+00  1.055175E+01  1.121017E+01  1.186057E+01
 1.250432E+01  1.314044E+01  1.376631E+01  1.437816E+01  1.497159E+01  1.554202E+01  1.608508E+01  1.659696E+01  1.707462E+01  1.751509E+01


SCALARS SiO2(am)_Area        float 1
LOOKUP_TABLE default
 1.604717E+05  1.532787E+05  1.488195E+05  1.456786E+05  1.433155E+05  1.414686E+05  1.399915E+05  1.387941E+05  1.378168E+05  1.370179E+05
 1.363672E+05  1.358414E+05  1.354223E+05  1.350952E+05  1.348479E+05  1.346702E+05  1.345531E+05  1.344890E+05  1.344710E+05  1.344931E+05


SCALARS Material_ID          int 1
LOOKUP_TABLE default
  1
  1
  1
  1
  1
  1
  1
  1
  1
  1
  1
  1
  1
  1
  1
  1
  1
  1
  1
  1


