# vtk DataFile Version 2.0
PFLOTRAN output
ASCII
DATASET UNSTRUCTURED_GRID
POINTS           84 float
 0.000000E+00  0.000000E+00  0.000000E+00
 7.580000E-03  0.000000E+00  0.000000E+00
 1.516000E-02  0.000000E+00  0.000000E+00
 2.274000E-02  0.000000E+00  0.000000E+00
 3.032000E-02  0.000000E+00  0.000000E+00
 3.790000E-02  0.000000E+00  0.000000E+00
 4.548000E-02  0.000000E+00  0.000000E+00
 5.306000E-02  0.000000E+00  0.000000E+00
 6.064000E-02  0.000000E+00  0.000000E+00
 6.822000E-02  0.000000E+00  0.000000E+00
 7.580000E-02  0.000000E+00  0.000000E+00
 8.338000E-02  0.000000E+00  0.000000E+00
 9.096000E-02  0.000000E+00  0.000000E+00
 9.854000E-02  0.000000E+00  0.000000E+00
 1.061200E-01  0.000000E+00  0.000000E+00
 1.137000E-01  0.000000E+00  0.000000E+00
 1.212800E-01  0.000000E+00  0.000000E+00
 1.288600E-01  0.000000E+00  0.000000E+00
 1.364400E-01  0.000000E+00  0.000000E+00
 1.440200E-01  0.000000E+00  0.000000E+00
 1.516000E-01  0.000000E+00  0.000000E+00
 0.000000E+00  1.125000E-02  0.000000E+00
 7.580000E-03  1.125000E-02  0.000000E+00
 1.516000E-02  1.125000E-02  0.000000E+00
 2.274000E-02  1.125000E-02  0.000000E+00
 3.032000E-02  1.125000E-02  0.000000E+00
 3.790000E-02  1.125000E-02  0.000000E+00
 4.548000E-02  1.125000E-02  0.000000E+00
 5.306000E-02  1.125000E-02  0.000000E+00
 6.064000E-02  1.125000E-02  0.000000E+00
 6.822000E-02  1.125000E-02  0.000000E+00
 7.580000E-02  1.125000E-02  0.000000E+00
 8.338000E-02  1.125000E-02  0.000000E+00
 9.096000E-02  1.125000E-02  0.000000E+00
 9.854000E-02  1.125000E-02  0.000000E+00
 1.061200E-01  1.125000E-02  0.000000E+00
 1.137000E-01  1.125000E-02  0.000000E+00
 1.212800E-01  1.125000E-02  0.000000E+00
 1.288600E-01  1.125000E-02  0.000000E+00
 1.364400E-01  1.125000E-02  0.000000E+00
 1.440200E-01  1.125000E-02  0.000000E+00
 1.516000E-01  1.125000E-02  0.000000E+00
 0.000000E+00  0.000000E+00  1.125000E-02
 7.580000E-03  0.000000E+00  1.125000E-02
 1.516000E-02  0.000000E+00  1.125000E-02
 2.274000E-02  0.000000E+00  1.125000E-02
 3.032000E-02  0.000000E+00  1.125000E-02
 3.790000E-02  0.000000E+00  1.125000E-02
 4.548000E-02  0.000000E+00  1.125000E-02
 5.306000E-02  0.000000E+00  1.125000E-02
 6.064000E-02  0.000000E+00  1.125000E-02
 6.822000E-02  0.000000E+00  1.125000E-02
 7.580000E-02  0.000000E+00  1.125000E-02
 8.338000E-02  0.000000E+00  1.125000E-02
 9.096000E-02  0.000000E+00  1.125000E-02
 9.854000E-02  0.000000E+00  1.125000E-02
 1.061200E-01  0.000000E+00  1.125000E-02
 1.137000E-01  0.000000E+00  1.125000E-02
 1.212800E-01  0.000000E+00  1.125000E-02
 1.288600E-01  0.000000E+00  1.125000E-02
 1.364400E-01  0.000000E+00  1.125000E-02
 1.440200E-01  0.000000E+00  1.125000E-02
 1.516000E-01  0.000000E+00  1.125000E-02
 0.000000E+00  1.125000E-02  1.125000E-02
 7.580000E-03  1.125000E-02  1.125000E-02
 1.516000E-02  1.125000E-02  1.125000E-02
 2.274000E-02  1.125000E-02  1.125000E-02
 3.032000E-02  1.125000E-02  1.125000E-02
 3.790000E-02  1.125000E-02  1.125000E-02
 4.548000E-02  1.125000E-02  1.125000E-02
 5.306000E-02  1.125000E-02  1.125000E-02
 6.064000E-02  1.125000E-02  1.125000E-02
 6.822000E-02  1.125000E-02  1.125000E-02
 7.580000E-02  1.125000E-02  1.125000E-02
 8.338000E-02  1.125000E-02  1.125000E-02
 9.096000E-02  1.125000E-02  1.125000E-02
 9.854000E-02  1.125000E-02  1.125000E-02
 1.061200E-01  1.125000E-02  1.125000E-02
 1.137000E-01  1.125000E-02  1.125000E-02
 1.212800E-01  1.125000E-02  1.125000E-02
 1.288600E-01  1.125000E-02  1.125000E-02
 1.364400E-01  1.125000E-02  1.125000E-02
 1.440200E-01  1.125000E-02  1.125000E-02
 1.516000E-01  1.125000E-02  1.125000E-02
CELLS           20          180
8        0        1       22       21       42       43       64       63
8        1        2       23       22       43       44       65       64
8        2        3       24       23       44       45       66       65
8        3        4       25       24       45       46       67       66
8        4        5       26       25       46       47       68       67
8        5        6       27       26       47       48       69       68
8        6        7       28       27       48       49       70       69
8        7        8       29       28       49       50       71       70
8        8        9       30       29       50       51       72       71
8        9       10       31       30       51       52       73       72
8       10       11       32       31       52       53       74       73
8       11       12       33       32       53       54       75       74
8       12       13       34       33       54       55       76       75
8       13       14       35       34       55       56       77       76
8       14       15       36       35       56       57       78       77
8       15       16       37       36       57       58       79       78
8       16       17       38       37       58       59       80       79
8       17       18       39       38       59       60       81       80
8       18       19       40       39       60       61       82       81
8       19       20       41       40       61       62       83       82

CELL_TYPES           20
12
12
12
12
12
12
12
12
12
12
12
12
12
12
12
12
12
12
12
12

CELL_DATA       20
SCALARS Porosity             float 1
LOOKUP_TABLE default
 9.893126E-01  9.890022E-01  9.887500E-01  9.885350E-01  9.883467E-01  9.881787E-01  9.880264E-01  9.878866E-01  9.877571E-01  9.876358E-01
 9.875214E-01  9.874128E-01  9.873090E-01  9.872093E-01  9.871129E-01  9.870195E-01  9.869284E-01  9.868394E-01  9.867521E-01  9.866664E-01


SCALARS Permeability_X       float 1
LOOKUP_TABLE default
 1.000000E-12  1.000000E-12  1.000000E-12  1.000000E-12  1.000000E-12  1.000000E-12  1.000000E-12  1.000000E-12  1.000000E-12  1.000000E-12
 1.000000E-12  1.000000E-12  1.000000E-12  1.000000E-12  1.000000E-12  1.000000E-12  1.000000E-12  1.000000E-12  1.000000E-12  1.000000E-12


SCALARS Liquid_Pressure      float 1
LOOKUP_TABLE default
 7.500296E+06  7.500281E+06  7.500266E+06  7.500250E+06  7.500235E+06  7.500220E+06  7.500205E+06  7.500190E+06  7.500175E+06  7.500159E+06
 7.500144E+06  7.500129E+06  7.500114E+06  7.500099E+06  7.500083E+06  7.500068E+06  7.500053E+06  7.500038E+06  7.500023E+06  7.500008E+06


SCALARS Temperature          float 1
LOOKUP_TABLE default
 1.500000E+02  1.500000E+02  1.500000E+02  1.500000E+02  1.499999E+02  1.499999E+02  1.499999E+02  1.499999E+02  1.499999E+02  1.499999E+02
 1.499999E+02  1.499999E+02  1.499999E+02  1.499999E+02  1.499999E+02  1.499999E+02  1.499999E+02  1.499999E+02  1.499999E+02  1.500000E+02


SCALARS pH                   float 1
LOOKUP_TABLE default
 4.785189E+00  4.848121E+00  4.907890E+00  4.963591E+00  5.015129E+00  5.062753E+00  5.106833E+00  5.147766E+00  5.185921E+00  5.221635E+00
 5.255201E+00  5.286872E+00  5.316871E+00  5.345385E+00  5.372580E+00  5.398597E+00  5.423561E+00  5.447578E+00  5.470744E+00  5.493082E+00


SCALARS Total_H+             float 1
LOOKUP_TABLE default
-3.534123E-04 -3.858300E-04 -4.205173E-04 -4.568275E-04 -4.943521E-04 -5.328274E-04 -5.720822E-04 -6.120063E-04 -6.525309E-04 -6.936159E-04
-7.352416E-04 -7.774027E-04 -8.201048E-04 -8.633614E-04 -9.071921E-04 -9.516214E-04 -9.966771E-04 -1.042390E-03 -1.088794E-03 -1.135797E-03


SCALARS Total_SiO2(aq)       float 1
LOOKUP_TABLE default
 1.405429E-02  1.404897E-02  1.404341E-02  1.403757E-02  1.403146E-02  1.402508E-02  1.401843E-02  1.401152E-02  1.400435E-02  1.399693E-02
 1.398927E-02  1.398137E-02  1.397323E-02  1.396486E-02  1.395627E-02  1.394745E-02  1.393842E-02  1.392916E-02  1.391970E-02  1.391004E-02


SCALARS Total_Al+++          float 1
LOOKUP_TABLE default
 6.015348E-05  6.015348E-05  6.015348E-05  6.015348E-05  6.015348E-05  6.015348E-05  6.015348E-05  6.015348E-05  6.015348E-05  6.015348E-05
 6.015348E-05  6.015348E-05  6.015348E-05  6.015348E-05  6.015348E-05  6.015348E-05  6.015348E-05  6.015348E-05  6.015348E-05  6.015348E-05


SCALARS Total_Ca++           float 1
LOOKUP_TABLE default
 8.417323E-05  1.003821E-04  1.177257E-04  1.358808E-04  1.546431E-04  1.738808E-04  1.935082E-04  2.134702E-04  2.337325E-04  2.542750E-04
 2.750879E-04  2.961684E-04  3.175195E-04  3.391478E-04  3.610631E-04  3.832777E-04  4.058056E-04  4.286622E-04  4.518638E-04  4.753655E-04


SCALARS Total_Cl-            float 1
LOOKUP_TABLE default
 2.513233E-02  2.513233E-02  2.513233E-02  2.513233E-02  2.513233E-02  2.513233E-02  2.513233E-02  2.513233E-02  2.513233E-02  2.513233E-02
 2.513233E-02  2.513233E-02  2.513233E-02  2.513233E-02  2.513233E-02  2.513233E-02  2.513233E-02  2.513233E-02  2.513233E-02  2.513233E-02


SCALARS Total_CO2(aq)        float 1
LOOKUP_TABLE default
 1.358087E-02  1.359708E-02  1.361443E-02  1.363258E-02  1.365134E-02  1.367058E-02  1.369021E-02  1.371017E-02  1.373043E-02  1.375097E-02
 1.377179E-02  1.379287E-02  1.381422E-02  1.383585E-02  1.385776E-02  1.387998E-02  1.390251E-02  1.392536E-02  1.394856E-02  1.397206E-02


SCALARS Total_Na+            float 1
LOOKUP_TABLE default
 3.122900E-02  3.122900E-02  3.122900E-02  3.122900E-02  3.122900E-02  3.122900E-02  3.122900E-02  3.122900E-02  3.122900E-02  3.122900E-02
 3.122900E-02  3.122900E-02  3.122900E-02  3.122900E-02  3.122900E-02  3.122900E-02  3.122900E-02  3.122900E-02  3.122900E-02  3.122900E-02


SCALARS Total_K+             float 1
LOOKUP_TABLE default
 2.655416E-03  2.655416E-03  2.655416E-03  2.655416E-03  2.655416E-03  2.655416E-03  2.655416E-03  2.655416E-03  2.655416E-03  2.655416E-03
 2.655416E-03  2.655416E-03  2.655416E-03  2.655416E-03  2.655416E-03  2.655416E-03  2.655416E-03  2.655416E-03  2.655416E-03  2.655415E-03


SCALARS Total_Mg++           float 1
LOOKUP_TABLE default
 8.216757E-07  8.216757E-07  8.216757E-07  8.216757E-07  8.216757E-07  8.216757E-07  8.216757E-07  8.216757E-07  8.216757E-07  8.216757E-07
 8.216757E-07  8.216757E-07  8.216757E-07  8.216756E-07  8.216756E-07  8.216756E-07  8.216756E-07  8.216756E-07  8.216756E-07  8.216756E-07


SCALARS Total_Fe++           float 1
LOOKUP_TABLE default
 1.251593E-06  1.251593E-06  1.251593E-06  1.251593E-06  1.251593E-06  1.251593E-06  1.251593E-06  1.251593E-06  1.251593E-06  1.251593E-06
 1.251593E-06  1.251593E-06  1.251593E-06  1.251593E-06  1.251593E-06  1.251592E-06  1.251592E-06  1.251592E-06  1.251592E-06  1.251592E-06


SCALARS Total_Cu++           float 1
LOOKUP_TABLE default
 9.952832E-11  9.952832E-11  9.952832E-11  9.952832E-11  9.952832E-11  9.952832E-11  9.952832E-11  9.952832E-11  9.952832E-11  9.952832E-11
 9.952832E-11  9.952832E-11  9.952832E-11  9.952832E-11  9.952832E-11  9.952832E-11  9.952832E-11  9.952832E-11  9.952832E-11  9.952832E-11


SCALARS Total_SO4--          float 1
LOOKUP_TABLE default
 4.376188E-03  4.376188E-03  4.376188E-03  4.376188E-03  4.376188E-03  4.376188E-03  4.376188E-03  4.376188E-03  4.376188E-03  4.376188E-03
 4.376188E-03  4.376188E-03  4.376188E-03  4.376188E-03  4.376188E-03  4.376188E-03  4.376188E-03  4.376188E-03  4.376188E-03  4.376188E-03


SCALARS Total_Tracer         float 1
LOOKUP_TABLE default
 9.952832E-11  9.952832E-11  9.952832E-11  9.952832E-11  9.952832E-11  9.952832E-11  9.952832E-11  9.952832E-11  9.952832E-11  9.952832E-11
 9.952832E-11  9.952832E-11  9.952832E-11  9.952832E-11  9.952832E-11  9.952832E-11  9.952832E-11  9.952832E-11  9.952832E-11  9.952832E-11


SCALARS Active_Gas_CO2(g)    float 1
LOOKUP_TABLE default
 0.000000E+00  0.000000E+00  0.000000E+00  0.000000E+00  0.000000E+00  0.000000E+00  0.000000E+00  0.000000E+00  0.000000E+00  0.000000E+00
 0.000000E+00  0.000000E+00  0.000000E+00  0.000000E+00  0.000000E+00  0.000000E+00  0.000000E+00  0.000000E+00  0.000000E+00  0.000000E+00


SCALARS HCO3-                float 1
LOOKUP_TABLE default
 1.859084E-04  2.147003E-04  2.461238E-04  2.794924E-04  3.143359E-04  3.503322E-04  3.872618E-04  4.249762E-04  4.633764E-04  5.023986E-04
 5.420040E-04  5.821721E-04  6.228956E-04  6.641775E-04  7.060280E-04  7.484633E-04  7.915041E-04  8.351746E-04  8.795013E-04  9.243936E-04


SCALARS H2SiO4--             float 1
LOOKUP_TABLE default
 4.470158E-13  5.971319E-13  7.861164E-13  1.015698E-12  1.287389E-12  1.602581E-12  1.962632E-12  2.368941E-12  2.822997E-12  3.326414E-12
 3.880960E-12  4.488576E-12  5.151392E-12  5.871745E-12  6.652192E-12  7.495519E-12  8.404761E-12  9.383208E-12  1.043442E-11  1.155915E-11


SCALARS H3SiO4-              float 1
LOOKUP_TABLE default
 1.476429E-06  1.706031E-06  1.956995E-06  2.223912E-06  2.503075E-06  2.791949E-06  3.088805E-06  3.392478E-06  3.702195E-06  4.017465E-06
 4.337993E-06  4.663636E-06  4.994358E-06  5.330203E-06  5.671281E-06  6.017752E-06  6.369813E-06  6.727695E-06  7.091649E-06  7.460968E-06


SCALARS Calcite_VF           float 1
LOOKUP_TABLE default
 1.004451E-02  1.027383E-02  1.045811E-02  1.061412E-02  1.075014E-02  1.087124E-02  1.098091E-02  1.108162E-02  1.117525E-02  1.126321E-02
 1.134663E-02  1.142639E-02  1.150320E-02  1.157768E-02  1.165029E-02  1.172147E-02  1.179156E-02  1.186086E-02  1.192966E-02  1.199800E-02


SCALARS SiO2(am)_VF          float 1
LOOKUP_TABLE default
 6.372895E-04  7.175556E-04  7.850285E-04  8.436833E-04  8.957171E-04  9.425256E-04  9.850672E-04  1.024034E-03  1.059945E-03  1.093200E-03
 1.124114E-03  1.152940E-03  1.179884E-03  1.205118E-03  1.228782E-03  1.250999E-03  1.271869E-03  1.291482E-03  1.309913E-03  1.327185E-03


SCALARS Calcite_Rate         float 1
LOOKUP_TABLE default
-1.933380E-05 -2.156701E-05 -2.306958E-05 -2.414079E-05 -2.493964E-05 -2.556263E-05 -2.607145E-05 -2.650683E-05 -2.689635E-05 -2.725909E-05
-2.760855E-05 -2.795445E-05 -2.830391E-05 -2.866227E-05 -2.903357E-05 -2.942091E-05 -2.982673E-05 -3.025293E-05 -3.070099E-05 -3.117101E-05


SCALARS SiO2(am)_Rate        float 1
LOOKUP_TABLE default
 6.792512E-06  7.076680E-06  7.412801E-06  7.769312E-06  8.131313E-06  8.491381E-06  8.845844E-06  9.193022E-06  9.532314E-06  9.863710E-06
 1.018752E-05  1.050422E-05  1.081437E-05  1.111855E-05  1.141734E-05  1.171130E-05  1.200099E-05  1.228690E-05  1.256953E-05  1.284857E-05


SCALARS Calcite_Area         float 1
LOOKUP_TABLE default
 3.634438E-01  4.557996E-01  5.447123E-01  6.318220E-01  7.177488E-01  8.029328E-01  8.877873E-01  9.727267E-01  1.058169E+00  1.144535E+00
 1.232245E+00  1.321723E+00  1.413397E+00  1.507703E+00  1.605086E+00  1.706008E+00  1.810950E+00  1.920415E+00  2.034936E+00  2.154768E+00


SCALARS SiO2(am)_Area        float 1
LOOKUP_TABLE default
 1.163333E+05  1.118137E+05  1.085091E+05  1.059312E+05  1.038375E+05  1.020886E+05  1.005970E+05  9.930441E+04  9.817018E+04  9.716477E+04
 9.626618E+04  9.545760E+04  9.472590E+04  9.406069E+04  9.345359E+04  9.289775E+04  9.238753E+04  9.191822E+04  9.148587E+04  9.108806E+04


SCALARS Material_ID          int 1
LOOKUP_TABLE default
  1
  1
  1
  1
  1
  1
  1
  1
  1
  1
  1
  1
  1
  1
  1
  1
  1
  1
  1
  1


