# vtk DataFile Version 2.0
PFLOTRAN output
ASCII
DATASET UNSTRUCTURED_GRID
POINTS           84 float
 0.000000E+00  0.000000E+00  0.000000E+00
 7.580000E-03  0.000000E+00  0.000000E+00
 1.516000E-02  0.000000E+00  0.000000E+00
 2.274000E-02  0.000000E+00  0.000000E+00
 3.032000E-02  0.000000E+00  0.000000E+00
 3.790000E-02  0.000000E+00  0.000000E+00
 4.548000E-02  0.000000E+00  0.000000E+00
 5.306000E-02  0.000000E+00  0.000000E+00
 6.064000E-02  0.000000E+00  0.000000E+00
 6.822000E-02  0.000000E+00  0.000000E+00
 7.580000E-02  0.000000E+00  0.000000E+00
 8.338000E-02  0.000000E+00  0.000000E+00
 9.096000E-02  0.000000E+00  0.000000E+00
 9.854000E-02  0.000000E+00  0.000000E+00
 1.061200E-01  0.000000E+00  0.000000E+00
 1.137000E-01  0.000000E+00  0.000000E+00
 1.212800E-01  0.000000E+00  0.000000E+00
 1.288600E-01  0.000000E+00  0.000000E+00
 1.364400E-01  0.000000E+00  0.000000E+00
 1.440200E-01  0.000000E+00  0.000000E+00
 1.516000E-01  0.000000E+00  0.000000E+00
 0.000000E+00  1.125000E-02  0.000000E+00
 7.580000E-03  1.125000E-02  0.000000E+00
 1.516000E-02  1.125000E-02  0.000000E+00
 2.274000E-02  1.125000E-02  0.000000E+00
 3.032000E-02  1.125000E-02  0.000000E+00
 3.790000E-02  1.125000E-02  0.000000E+00
 4.548000E-02  1.125000E-02  0.000000E+00
 5.306000E-02  1.125000E-02  0.000000E+00
 6.064000E-02  1.125000E-02  0.000000E+00
 6.822000E-02  1.125000E-02  0.000000E+00
 7.580000E-02  1.125000E-02  0.000000E+00
 8.338000E-02  1.125000E-02  0.000000E+00
 9.096000E-02  1.125000E-02  0.000000E+00
 9.854000E-02  1.125000E-02  0.000000E+00
 1.061200E-01  1.125000E-02  0.000000E+00
 1.137000E-01  1.125000E-02  0.000000E+00
 1.212800E-01  1.125000E-02  0.000000E+00
 1.288600E-01  1.125000E-02  0.000000E+00
 1.364400E-01  1.125000E-02  0.000000E+00
 1.440200E-01  1.125000E-02  0.000000E+00
 1.516000E-01  1.125000E-02  0.000000E+00
 0.000000E+00  0.000000E+00  1.125000E-02
 7.580000E-03  0.000000E+00  1.125000E-02
 1.516000E-02  0.000000E+00  1.125000E-02
 2.274000E-02  0.000000E+00  1.125000E-02
 3.032000E-02  0.000000E+00  1.125000E-02
 3.790000E-02  0.000000E+00  1.125000E-02
 4.548000E-02  0.000000E+00  1.125000E-02
 5.306000E-02  0.000000E+00  1.125000E-02
 6.064000E-02  0.000000E+00  1.125000E-02
 6.822000E-02  0.000000E+00  1.125000E-02
 7.580000E-02  0.000000E+00  1.125000E-02
 8.338000E-02  0.000000E+00  1.125000E-02
 9.096000E-02  0.000000E+00  1.125000E-02
 9.854000E-02  0.000000E+00  1.125000E-02
 1.061200E-01  0.000000E+00  1.125000E-02
 1.137000E-01  0.000000E+00  1.125000E-02
 1.212800E-01  0.000000E+00  1.125000E-02
 1.288600E-01  0.000000E+00  1.125000E-02
 1.364400E-01  0.000000E+00  1.125000E-02
 1.440200E-01  0.000000E+00  1.125000E-02
 1.516000E-01  0.000000E+00  1.125000E-02
 0.000000E+00  1.125000E-02  1.125000E-02
 7.580000E-03  1.125000E-02  1.125000E-02
 1.516000E-02  1.125000E-02  1.125000E-02
 2.274000E-02  1.125000E-02  1.125000E-02
 3.032000E-02  1.125000E-02  1.125000E-02
 3.790000E-02  1.125000E-02  1.125000E-02
 4.548000E-02  1.125000E-02  1.125000E-02
 5.306000E-02  1.125000E-02  1.125000E-02
 6.064000E-02  1.125000E-02  1.125000E-02
 6.822000E-02  1.125000E-02  1.125000E-02
 7.580000E-02  1.125000E-02  1.125000E-02
 8.338000E-02  1.125000E-02  1.125000E-02
 9.096000E-02  1.125000E-02  1.125000E-02
 9.854000E-02  1.125000E-02  1.125000E-02
 1.061200E-01  1.125000E-02  1.125000E-02
 1.137000E-01  1.125000E-02  1.125000E-02
 1.212800E-01  1.125000E-02  1.125000E-02
 1.288600E-01  1.125000E-02  1.125000E-02
 1.364400E-01  1.125000E-02  1.125000E-02
 1.440200E-01  1.125000E-02  1.125000E-02
 1.516000E-01  1.125000E-02  1.125000E-02
CELLS           20          180
8        0        1       22       21       42       43       64       63
8        1        2       23       22       43       44       65       64
8        2        3       24       23       44       45       66       65
8        3        4       25       24       45       46       67       66
8        4        5       26       25       46       47       68       67
8        5        6       27       26       47       48       69       68
8        6        7       28       27       48       49       70       69
8        7        8       29       28       49       50       71       70
8        8        9       30       29       50       51       72       71
8        9       10       31       30       51       52       73       72
8       10       11       32       31       52       53       74       73
8       11       12       33       32       53       54       75       74
8       12       13       34       33       54       55       76       75
8       13       14       35       34       55       56       77       76
8       14       15       36       35       56       57       78       77
8       15       16       37       36       57       58       79       78
8       16       17       38       37       58       59       80       79
8       17       18       39       38       59       60       81       80
8       18       19       40       39       60       61       82       81
8       19       20       41       40       61       62       83       82

CELL_TYPES           20
12
12
12
12
12
12
12
12
12
12
12
12
12
12
12
12
12
12
12
12

CELL_DATA       20
SCALARS Porosity             float 1
LOOKUP_TABLE default
 9.894432E-01  9.891520E-01  9.889119E-01  9.887050E-01  9.885221E-01  9.883577E-01  9.882079E-01  9.880700E-01  9.879419E-01  9.878218E-01
 9.877085E-01  9.876009E-01  9.874981E-01  9.873996E-01  9.873045E-01  9.872126E-01  9.871232E-01  9.870361E-01  9.869509E-01  9.868675E-01


SCALARS Permeability_X       float 1
LOOKUP_TABLE default
 1.000000E-12  1.000000E-12  1.000000E-12  1.000000E-12  1.000000E-12  1.000000E-12  1.000000E-12  1.000000E-12  1.000000E-12  1.000000E-12
 1.000000E-12  1.000000E-12  1.000000E-12  1.000000E-12  1.000000E-12  1.000000E-12  1.000000E-12  1.000000E-12  1.000000E-12  1.000000E-12


SCALARS Liquid_Pressure      float 1
LOOKUP_TABLE default
 7.500296E+06  7.500281E+06  7.500266E+06  7.500250E+06  7.500235E+06  7.500220E+06  7.500205E+06  7.500190E+06  7.500175E+06  7.500159E+06
 7.500144E+06  7.500129E+06  7.500114E+06  7.500099E+06  7.500083E+06  7.500068E+06  7.500053E+06  7.500038E+06  7.500023E+06  7.500008E+06


SCALARS Temperature          float 1
LOOKUP_TABLE default
 1.500000E+02  1.500000E+02  1.500000E+02  1.500000E+02  1.500000E+02  1.500000E+02  1.499999E+02  1.499999E+02  1.499999E+02  1.499999E+02
 1.499999E+02  1.499999E+02  1.499999E+02  1.499999E+02  1.499999E+02  1.499999E+02  1.499999E+02  1.499999E+02  1.500000E+02  1.500000E+02


SCALARS pH                   float 1
LOOKUP_TABLE default
 4.775860E+00  4.830370E+00  4.883105E+00  4.933114E+00  4.980091E+00  5.024054E+00  5.065176E+00  5.103692E+00  5.139849E+00  5.173888E+00
 5.206029E+00  5.236474E+00  5.265400E+00  5.292965E+00  5.319307E+00  5.344549E+00  5.368800E+00  5.392156E+00  5.414700E+00  5.436452E+00


SCALARS Total_H+             float 1
LOOKUP_TABLE default
-3.489256E-04 -3.762881E-04 -4.056319E-04 -4.364494E-04 -4.684047E-04 -5.012701E-04 -5.348904E-04 -5.691596E-04 -6.040068E-04 -6.393861E-04
-6.752694E-04 -7.116423E-04 -7.485005E-04 -7.858475E-04 -8.236927E-04 -8.620506E-04 -9.009393E-04 -9.403802E-04 -9.803972E-04 -1.020909E-03


SCALARS Total_SiO2(aq)       float 1
LOOKUP_TABLE default
 1.405449E-02  1.404942E-02  1.404416E-02  1.403868E-02  1.403297E-02  1.402704E-02  1.402088E-02  1.401450E-02  1.400789E-02  1.400107E-02
 1.399404E-02  1.398680E-02  1.397935E-02  1.397171E-02  1.396386E-02  1.395582E-02  1.394758E-02  1.393915E-02  1.393054E-02  1.392176E-02


SCALARS Total_Al+++          float 1
LOOKUP_TABLE default
 6.015348E-05  6.015348E-05  6.015348E-05  6.015348E-05  6.015348E-05  6.015348E-05  6.015348E-05  6.015348E-05  6.015348E-05  6.015348E-05
 6.015348E-05  6.015348E-05  6.015348E-05  6.015348E-05  6.015348E-05  6.015348E-05  6.015348E-05  6.015348E-05  6.015348E-05  6.015348E-05


SCALARS Total_Ca++           float 1
LOOKUP_TABLE default
 8.192985E-05  9.561110E-05  1.102830E-04  1.256918E-04  1.416694E-04  1.581021E-04  1.749123E-04  1.920469E-04  2.094705E-04  2.271601E-04
 2.451017E-04  2.632882E-04  2.817173E-04  3.003908E-04  3.193134E-04  3.384924E-04  3.579367E-04  3.776572E-04  3.976657E-04  4.179215E-04


SCALARS Total_Cl-            float 1
LOOKUP_TABLE default
 2.513233E-02  2.513233E-02  2.513233E-02  2.513233E-02  2.513233E-02  2.513233E-02  2.513233E-02  2.513233E-02  2.513233E-02  2.513233E-02
 2.513233E-02  2.513233E-02  2.513233E-02  2.513233E-02  2.513233E-02  2.513233E-02  2.513233E-02  2.513233E-02  2.513233E-02  2.513233E-02


SCALARS Total_CO2(aq)        float 1
LOOKUP_TABLE default
 1.357863E-02  1.359231E-02  1.360698E-02  1.362239E-02  1.363837E-02  1.365480E-02  1.367161E-02  1.368875E-02  1.370617E-02  1.372386E-02
 1.374180E-02  1.375999E-02  1.377842E-02  1.379709E-02  1.381601E-02  1.383519E-02  1.385464E-02  1.387436E-02  1.389437E-02  1.391462E-02


SCALARS Total_Na+            float 1
LOOKUP_TABLE default
 3.122900E-02  3.122900E-02  3.122900E-02  3.122900E-02  3.122900E-02  3.122900E-02  3.122900E-02  3.122900E-02  3.122900E-02  3.122900E-02
 3.122900E-02  3.122900E-02  3.122900E-02  3.122900E-02  3.122900E-02  3.122900E-02  3.122900E-02  3.122900E-02  3.122900E-02  3.122900E-02


SCALARS Total_K+             float 1
LOOKUP_TABLE default
 2.655416E-03  2.655416E-03  2.655416E-03  2.655416E-03  2.655416E-03  2.655416E-03  2.655416E-03  2.655416E-03  2.655416E-03  2.655416E-03
 2.655416E-03  2.655416E-03  2.655416E-03  2.655416E-03  2.655416E-03  2.655416E-03  2.655416E-03  2.655416E-03  2.655416E-03  2.655416E-03


SCALARS Total_Mg++           float 1
LOOKUP_TABLE default
 8.216757E-07  8.216757E-07  8.216757E-07  8.216757E-07  8.216757E-07  8.216757E-07  8.216757E-07  8.216757E-07  8.216757E-07  8.216757E-07
 8.216757E-07  8.216757E-07  8.216757E-07  8.216756E-07  8.216756E-07  8.216756E-07  8.216756E-07  8.216756E-07  8.216756E-07  8.216756E-07


SCALARS Total_Fe++           float 1
LOOKUP_TABLE default
 1.251593E-06  1.251593E-06  1.251593E-06  1.251593E-06  1.251593E-06  1.251593E-06  1.251593E-06  1.251593E-06  1.251593E-06  1.251593E-06
 1.251593E-06  1.251593E-06  1.251593E-06  1.251593E-06  1.251593E-06  1.251592E-06  1.251592E-06  1.251592E-06  1.251592E-06  1.251592E-06


SCALARS Total_Cu++           float 1
LOOKUP_TABLE default
 9.952832E-11  9.952832E-11  9.952832E-11  9.952832E-11  9.952832E-11  9.952832E-11  9.952832E-11  9.952832E-11  9.952832E-11  9.952832E-11
 9.952832E-11  9.952832E-11  9.952832E-11  9.952832E-11  9.952832E-11  9.952832E-11  9.952832E-11  9.952832E-11  9.952832E-11  9.952832E-11


SCALARS Total_SO4--          float 1
LOOKUP_TABLE default
 4.376188E-03  4.376188E-03  4.376188E-03  4.376188E-03  4.376188E-03  4.376188E-03  4.376188E-03  4.376188E-03  4.376188E-03  4.376188E-03
 4.376188E-03  4.376188E-03  4.376188E-03  4.376188E-03  4.376188E-03  4.376188E-03  4.376188E-03  4.376188E-03  4.376188E-03  4.376188E-03


SCALARS Total_Tracer         float 1
LOOKUP_TABLE default
 9.952832E-11  9.952832E-11  9.952832E-11  9.952832E-11  9.952832E-11  9.952832E-11  9.952832E-11  9.952832E-11  9.952832E-11  9.952832E-11
 9.952832E-11  9.952832E-11  9.952832E-11  9.952832E-11  9.952832E-11  9.952832E-11  9.952832E-11  9.952832E-11  9.952832E-11  9.952832E-11


SCALARS Active_Gas_CO2(g)    float 1
LOOKUP_TABLE default
 0.000000E+00  0.000000E+00  0.000000E+00  0.000000E+00  0.000000E+00  0.000000E+00  0.000000E+00  0.000000E+00  0.000000E+00  0.000000E+00
 0.000000E+00  0.000000E+00  0.000000E+00  0.000000E+00  0.000000E+00  0.000000E+00  0.000000E+00  0.000000E+00  0.000000E+00  0.000000E+00


SCALARS HCO3-                float 1
LOOKUP_TABLE default
 1.819802E-04  2.061584E-04  2.325751E-04  2.607154E-04  2.902095E-04  3.207911E-04  3.522691E-04  3.845075E-04  4.174102E-04  4.509110E-04
 4.849651E-04  5.195445E-04  5.546334E-04  5.902254E-04  6.263218E-04  6.629296E-04  7.000605E-04  7.377300E-04  7.759566E-04  8.146585E-04


SCALARS H2SiO4--             float 1
LOOKUP_TABLE default
 4.282195E-13  5.502595E-13  7.013237E-13  8.826997E-13  1.095565E-12  1.341011E-12  1.620094E-12  1.933878E-12  2.283471E-12  2.670050E-12
 3.094881E-12  3.559339E-12  4.064918E-12  4.613242E-12  5.206082E-12  5.845361E-12  6.533166E-12  7.271763E-12  8.063595E-12  8.909001E-12


SCALARS H3SiO4-              float 1
LOOKUP_TABLE default
 1.445073E-06  1.637750E-06  1.848526E-06  2.073341E-06  2.309281E-06  2.554247E-06  2.806736E-06  3.065679E-06  3.330324E-06  3.600155E-06
 3.874828E-06  4.154133E-06  4.437957E-06  4.726268E-06  5.019091E-06  5.316503E-06  5.618619E-06  5.925587E-06  6.237581E-06  6.553957E-06


SCALARS Calcite_VF           float 1
LOOKUP_TABLE default
 9.860900E-03  1.006912E-02  1.023885E-02  1.038427E-02  1.051225E-02  1.062702E-02  1.073147E-02  1.082772E-02  1.091737E-02  1.100166E-02
 1.108157E-02  1.115789E-02  1.123128E-02  1.130227E-02  1.137130E-02  1.143876E-02  1.150499E-02  1.157025E-02  1.163480E-02  1.169871E-02


SCALARS SiO2(am)_VF          float 1
LOOKUP_TABLE default
 6.914543E-04  7.737185E-04  8.436100E-04  9.048665E-04  9.595684E-04  1.009051E-03  1.054240E-03  1.095812E-03  1.134279E-03  1.170037E-03
 1.203402E-03  1.234630E-03  1.263931E-03  1.291477E-03  1.317416E-03  1.341871E-03  1.364949E-03  1.386741E-03  1.407326E-03  1.426726E-03


SCALARS Calcite_Rate         float 1
LOOKUP_TABLE default
-1.634122E-05 -1.820565E-05 -1.951849E-05 -2.049268E-05 -2.124287E-05 -2.184129E-05 -2.233607E-05 -2.276030E-05 -2.313719E-05 -2.348332E-05
-2.381081E-05 -2.412858E-05 -2.444339E-05 -2.476039E-05 -2.508360E-05 -2.541623E-05 -2.576086E-05 -2.611960E-05 -2.649422E-05 -2.688531E-05


SCALARS SiO2(am)_Rate        float 1
LOOKUP_TABLE default
 6.529910E-06  6.743261E-06  7.007594E-06  7.295818E-06  7.594275E-06  7.895559E-06  8.195572E-06  8.492082E-06  8.783940E-06  9.070638E-06
 9.352053E-06  9.628290E-06  9.899589E-06  1.016626E-05  1.042867E-05  1.068717E-05  1.094216E-05  1.119398E-05  1.144301E-05  1.168894E-05


SCALARS Calcite_Area         float 1
LOOKUP_TABLE default
 3.018915E-01  3.722720E-01  4.401796E-01  5.069839E-01  5.731557E-01  6.389814E-01  7.047111E-01  7.705937E-01  8.368841E-01  9.038429E-01
 9.717364E-01  1.040835E+00  1.111416E+00  1.183760E+00  1.258160E+00  1.334915E+00  1.414338E+00  1.496759E+00  1.582521E+00  1.671760E+00


SCALARS SiO2(am)_Area        float 1
LOOKUP_TABLE default
 1.131983E+05  1.090269E+05  1.059243E+05  1.034754E+05  1.014689E+05  9.978148E+04  9.833439E+04  9.707457E+04  9.596451E+04  9.497686E+04
 9.409103E+04  9.329122E+04  9.256502E+04  9.190254E+04  9.129580E+04  9.073825E+04  9.022444E+04  8.974986E+04  8.931066E+04  8.890458E+04


SCALARS Material_ID          int 1
LOOKUP_TABLE default
  1
  1
  1
  1
  1
  1
  1
  1
  1
  1
  1
  1
  1
  1
  1
  1
  1
  1
  1
  1


