# vtk DataFile Version 2.0
PFLOTRAN output
ASCII
DATASET UNSTRUCTURED_GRID
POINTS           84 float
 0.000000E+00  0.000000E+00  0.000000E+00
 7.580000E-03  0.000000E+00  0.000000E+00
 1.516000E-02  0.000000E+00  0.000000E+00
 2.274000E-02  0.000000E+00  0.000000E+00
 3.032000E-02  0.000000E+00  0.000000E+00
 3.790000E-02  0.000000E+00  0.000000E+00
 4.548000E-02  0.000000E+00  0.000000E+00
 5.306000E-02  0.000000E+00  0.000000E+00
 6.064000E-02  0.000000E+00  0.000000E+00
 6.822000E-02  0.000000E+00  0.000000E+00
 7.580000E-02  0.000000E+00  0.000000E+00
 8.338000E-02  0.000000E+00  0.000000E+00
 9.096000E-02  0.000000E+00  0.000000E+00
 9.854000E-02  0.000000E+00  0.000000E+00
 1.061200E-01  0.000000E+00  0.000000E+00
 1.137000E-01  0.000000E+00  0.000000E+00
 1.212800E-01  0.000000E+00  0.000000E+00
 1.288600E-01  0.000000E+00  0.000000E+00
 1.364400E-01  0.000000E+00  0.000000E+00
 1.440200E-01  0.000000E+00  0.000000E+00
 1.516000E-01  0.000000E+00  0.000000E+00
 0.000000E+00  1.125000E-02  0.000000E+00
 7.580000E-03  1.125000E-02  0.000000E+00
 1.516000E-02  1.125000E-02  0.000000E+00
 2.274000E-02  1.125000E-02  0.000000E+00
 3.032000E-02  1.125000E-02  0.000000E+00
 3.790000E-02  1.125000E-02  0.000000E+00
 4.548000E-02  1.125000E-02  0.000000E+00
 5.306000E-02  1.125000E-02  0.000000E+00
 6.064000E-02  1.125000E-02  0.000000E+00
 6.822000E-02  1.125000E-02  0.000000E+00
 7.580000E-02  1.125000E-02  0.000000E+00
 8.338000E-02  1.125000E-02  0.000000E+00
 9.096000E-02  1.125000E-02  0.000000E+00
 9.854000E-02  1.125000E-02  0.000000E+00
 1.061200E-01  1.125000E-02  0.000000E+00
 1.137000E-01  1.125000E-02  0.000000E+00
 1.212800E-01  1.125000E-02  0.000000E+00
 1.288600E-01  1.125000E-02  0.000000E+00
 1.364400E-01  1.125000E-02  0.000000E+00
 1.440200E-01  1.125000E-02  0.000000E+00
 1.516000E-01  1.125000E-02  0.000000E+00
 0.000000E+00  0.000000E+00  1.125000E-02
 7.580000E-03  0.000000E+00  1.125000E-02
 1.516000E-02  0.000000E+00  1.125000E-02
 2.274000E-02  0.000000E+00  1.125000E-02
 3.032000E-02  0.000000E+00  1.125000E-02
 3.790000E-02  0.000000E+00  1.125000E-02
 4.548000E-02  0.000000E+00  1.125000E-02
 5.306000E-02  0.000000E+00  1.125000E-02
 6.064000E-02  0.000000E+00  1.125000E-02
 6.822000E-02  0.000000E+00  1.125000E-02
 7.580000E-02  0.000000E+00  1.125000E-02
 8.338000E-02  0.000000E+00  1.125000E-02
 9.096000E-02  0.000000E+00  1.125000E-02
 9.854000E-02  0.000000E+00  1.125000E-02
 1.061200E-01  0.000000E+00  1.125000E-02
 1.137000E-01  0.000000E+00  1.125000E-02
 1.212800E-01  0.000000E+00  1.125000E-02
 1.288600E-01  0.000000E+00  1.125000E-02
 1.364400E-01  0.000000E+00  1.125000E-02
 1.440200E-01  0.000000E+00  1.125000E-02
 1.516000E-01  0.000000E+00  1.125000E-02
 0.000000E+00  1.125000E-02  1.125000E-02
 7.580000E-03  1.125000E-02  1.125000E-02
 1.516000E-02  1.125000E-02  1.125000E-02
 2.274000E-02  1.125000E-02  1.125000E-02
 3.032000E-02  1.125000E-02  1.125000E-02
 3.790000E-02  1.125000E-02  1.125000E-02
 4.548000E-02  1.125000E-02  1.125000E-02
 5.306000E-02  1.125000E-02  1.125000E-02
 6.064000E-02  1.125000E-02  1.125000E-02
 6.822000E-02  1.125000E-02  1.125000E-02
 7.580000E-02  1.125000E-02  1.125000E-02
 8.338000E-02  1.125000E-02  1.125000E-02
 9.096000E-02  1.125000E-02  1.125000E-02
 9.854000E-02  1.125000E-02  1.125000E-02
 1.061200E-01  1.125000E-02  1.125000E-02
 1.137000E-01  1.125000E-02  1.125000E-02
 1.212800E-01  1.125000E-02  1.125000E-02
 1.288600E-01  1.125000E-02  1.125000E-02
 1.364400E-01  1.125000E-02  1.125000E-02
 1.440200E-01  1.125000E-02  1.125000E-02
 1.516000E-01  1.125000E-02  1.125000E-02
CELLS           20          180
8        0        1       22       21       42       43       64       63
8        1        2       23       22       43       44       65       64
8        2        3       24       23       44       45       66       65
8        3        4       25       24       45       46       67       66
8        4        5       26       25       46       47       68       67
8        5        6       27       26       47       48       69       68
8        6        7       28       27       48       49       70       69
8        7        8       29       28       49       50       71       70
8        8        9       30       29       50       51       72       71
8        9       10       31       30       51       52       73       72
8       10       11       32       31       52       53       74       73
8       11       12       33       32       53       54       75       74
8       12       13       34       33       54       55       76       75
8       13       14       35       34       55       56       77       76
8       14       15       36       35       56       57       78       77
8       15       16       37       36       57       58       79       78
8       16       17       38       37       58       59       80       79
8       17       18       39       38       59       60       81       80
8       18       19       40       39       60       61       82       81
8       19       20       41       40       61       62       83       82

CELL_TYPES           20
12
12
12
12
12
12
12
12
12
12
12
12
12
12
12
12
12
12
12
12

CELL_DATA       20
SCALARS Porosity             float 1
LOOKUP_TABLE default
 9.894945E-01  9.892112E-01  9.889763E-01  9.887729E-01  9.885924E-01  9.884298E-01  9.882813E-01  9.881443E-01  9.880169E-01  9.878974E-01
 9.877846E-01  9.876775E-01  9.875752E-01  9.874772E-01  9.873827E-01  9.872913E-01  9.872026E-01  9.871162E-01  9.870318E-01  9.869494E-01


SCALARS Permeability_X       float 1
LOOKUP_TABLE default
 1.000000E-12  1.000000E-12  1.000000E-12  1.000000E-12  1.000000E-12  1.000000E-12  1.000000E-12  1.000000E-12  1.000000E-12  1.000000E-12
 1.000000E-12  1.000000E-12  1.000000E-12  1.000000E-12  1.000000E-12  1.000000E-12  1.000000E-12  1.000000E-12  1.000000E-12  1.000000E-12


SCALARS Liquid_Pressure      float 1
LOOKUP_TABLE default
 7.500296E+06  7.500281E+06  7.500266E+06  7.500250E+06  7.500235E+06  7.500220E+06  7.500205E+06  7.500190E+06  7.500175E+06  7.500159E+06
 7.500144E+06  7.500129E+06  7.500114E+06  7.500099E+06  7.500083E+06  7.500068E+06  7.500053E+06  7.500038E+06  7.500023E+06  7.500008E+06


SCALARS Temperature          float 1
LOOKUP_TABLE default
 1.500000E+02  1.500000E+02  1.500000E+02  1.500000E+02  1.500000E+02  1.500000E+02  1.499999E+02  1.499999E+02  1.499999E+02  1.499999E+02
 1.499999E+02  1.499999E+02  1.499999E+02  1.499999E+02  1.499999E+02  1.499999E+02  1.499999E+02  1.499999E+02  1.500000E+02  1.500000E+02


SCALARS pH                   float 1
LOOKUP_TABLE default
 4.772352E+00  4.823598E+00  4.873517E+00  4.921176E+00  4.966218E+00  5.008594E+00  5.048409E+00  5.085839E+00  5.121087E+00  5.154356E+00
 5.185838E+00  5.215711E+00  5.244135E+00  5.271255E+00  5.297197E+00  5.322075E+00  5.345992E+00  5.369037E+00  5.391289E+00  5.412766E+00


SCALARS Total_H+             float 1
LOOKUP_TABLE default
-3.472580E-04 -3.727329E-04 -4.000678E-04 -4.288069E-04 -4.586436E-04 -4.893661E-04 -5.208271E-04 -5.529240E-04 -5.855865E-04 -6.187673E-04
-6.524362E-04 -6.865760E-04 -7.211791E-04 -7.562453E-04 -7.917807E-04 -8.277957E-04 -8.643048E-04 -9.013258E-04 -9.388788E-04 -9.768852E-04


SCALARS Total_SiO2(aq)       float 1
LOOKUP_TABLE default
 1.405456E-02  1.404960E-02  1.404445E-02  1.403911E-02  1.403356E-02  1.402780E-02  1.402183E-02  1.401565E-02  1.400926E-02  1.400268E-02
 1.399589E-02  1.398890E-02  1.398172E-02  1.397436E-02  1.396680E-02  1.395906E-02  1.395113E-02  1.394303E-02  1.393475E-02  1.392631E-02


SCALARS Total_Al+++          float 1
LOOKUP_TABLE default
 6.015348E-05  6.015348E-05  6.015348E-05  6.015348E-05  6.015348E-05  6.015348E-05  6.015348E-05  6.015348E-05  6.015348E-05  6.015348E-05
 6.015348E-05  6.015348E-05  6.015348E-05  6.015348E-05  6.015348E-05  6.015348E-05  6.015348E-05  6.015348E-05  6.015348E-05  6.015348E-05


SCALARS Total_Ca++           float 1
LOOKUP_TABLE default
 8.109608E-05  9.383350E-05  1.075009E-04  1.218705E-04  1.367889E-04  1.521501E-04  1.678806E-04  1.839291E-04  2.002603E-04  2.168507E-04
 2.336852E-04  2.507551E-04  2.680566E-04  2.855897E-04  3.033574E-04  3.213649E-04  3.396195E-04  3.581300E-04  3.769064E-04  3.959097E-04


SCALARS Total_Cl-            float 1
LOOKUP_TABLE default
 2.513233E-02  2.513233E-02  2.513233E-02  2.513233E-02  2.513233E-02  2.513233E-02  2.513233E-02  2.513233E-02  2.513233E-02  2.513233E-02
 2.513233E-02  2.513233E-02  2.513233E-02  2.513233E-02  2.513233E-02  2.513233E-02  2.513233E-02  2.513233E-02  2.513233E-02  2.513233E-02


SCALARS Total_CO2(aq)        float 1
LOOKUP_TABLE default
 1.357780E-02  1.359053E-02  1.360420E-02  1.361857E-02  1.363349E-02  1.364885E-02  1.366458E-02  1.368063E-02  1.369696E-02  1.371355E-02
 1.373038E-02  1.374745E-02  1.376476E-02  1.378229E-02  1.380006E-02  1.381806E-02  1.383632E-02  1.385483E-02  1.387361E-02  1.389261E-02


SCALARS Total_Na+            float 1
LOOKUP_TABLE default
 3.122900E-02  3.122900E-02  3.122900E-02  3.122900E-02  3.122900E-02  3.122900E-02  3.122900E-02  3.122900E-02  3.122900E-02  3.122900E-02
 3.122900E-02  3.122900E-02  3.122900E-02  3.122900E-02  3.122900E-02  3.122900E-02  3.122900E-02  3.122900E-02  3.122900E-02  3.122900E-02


SCALARS Total_K+             float 1
LOOKUP_TABLE default
 2.655416E-03  2.655416E-03  2.655416E-03  2.655416E-03  2.655416E-03  2.655416E-03  2.655416E-03  2.655416E-03  2.655416E-03  2.655416E-03
 2.655416E-03  2.655416E-03  2.655416E-03  2.655416E-03  2.655416E-03  2.655416E-03  2.655416E-03  2.655416E-03  2.655416E-03  2.655416E-03


SCALARS Total_Mg++           float 1
LOOKUP_TABLE default
 8.216757E-07  8.216757E-07  8.216757E-07  8.216757E-07  8.216757E-07  8.216757E-07  8.216757E-07  8.216757E-07  8.216757E-07  8.216757E-07
 8.216757E-07  8.216757E-07  8.216757E-07  8.216756E-07  8.216756E-07  8.216756E-07  8.216756E-07  8.216756E-07  8.216756E-07  8.216756E-07


SCALARS Total_Fe++           float 1
LOOKUP_TABLE default
 1.251593E-06  1.251593E-06  1.251593E-06  1.251593E-06  1.251593E-06  1.251593E-06  1.251593E-06  1.251593E-06  1.251593E-06  1.251593E-06
 1.251593E-06  1.251593E-06  1.251593E-06  1.251593E-06  1.251593E-06  1.251592E-06  1.251592E-06  1.251592E-06  1.251592E-06  1.251592E-06


SCALARS Total_Cu++           float 1
LOOKUP_TABLE default
 9.952832E-11  9.952832E-11  9.952832E-11  9.952832E-11  9.952832E-11  9.952832E-11  9.952832E-11  9.952832E-11  9.952832E-11  9.952832E-11
 9.952832E-11  9.952832E-11  9.952832E-11  9.952832E-11  9.952832E-11  9.952832E-11  9.952832E-11  9.952832E-11  9.952832E-11  9.952832E-11


SCALARS Total_SO4--          float 1
LOOKUP_TABLE default
 4.376188E-03  4.376188E-03  4.376188E-03  4.376188E-03  4.376188E-03  4.376188E-03  4.376188E-03  4.376188E-03  4.376188E-03  4.376188E-03
 4.376188E-03  4.376188E-03  4.376188E-03  4.376188E-03  4.376188E-03  4.376188E-03  4.376188E-03  4.376188E-03  4.376188E-03  4.376188E-03


SCALARS Total_Tracer         float 1
LOOKUP_TABLE default
 9.952832E-11  9.952832E-11  9.952832E-11  9.952832E-11  9.952832E-11  9.952832E-11  9.952832E-11  9.952832E-11  9.952832E-11  9.952832E-11
 9.952832E-11  9.952832E-11  9.952832E-11  9.952832E-11  9.952832E-11  9.952832E-11  9.952832E-11  9.952832E-11  9.952832E-11  9.952832E-11


SCALARS Active_Gas_CO2(g)    float 1
LOOKUP_TABLE default
 0.000000E+00  0.000000E+00  0.000000E+00  0.000000E+00  0.000000E+00  0.000000E+00  0.000000E+00  0.000000E+00  0.000000E+00  0.000000E+00
 0.000000E+00  0.000000E+00  0.000000E+00  0.000000E+00  0.000000E+00  0.000000E+00  0.000000E+00  0.000000E+00  0.000000E+00  0.000000E+00


SCALARS HCO3-                float 1
LOOKUP_TABLE default
 1.805243E-04  2.029891E-04  2.275341E-04  2.537055E-04  2.811719E-04  3.096900E-04  3.390817E-04  3.692177E-04  4.000049E-04  4.313772E-04
 4.632887E-04  4.957092E-04  5.286203E-04  5.620125E-04  5.958838E-04  6.302379E-04  6.650830E-04  7.004313E-04  7.362977E-04  7.726037E-04


SCALARS H2SiO4--             float 1
LOOKUP_TABLE default
 4.213571E-13  5.333632E-13  6.710304E-13  8.354835E-13  1.027771E-12  1.248870E-12  1.499725E-12  1.781282E-12  2.094517E-12  2.440458E-12
 2.820205E-12  3.234944E-12  3.685956E-12  4.174634E-12  4.702486E-12  5.271148E-12  5.882395E-12  6.538147E-12  7.240476E-12  7.989580E-12


SCALARS H3SiO4-              float 1
LOOKUP_TABLE default
 1.433454E-06  1.612427E-06  1.808194E-06  2.017178E-06  2.236766E-06  2.465040E-06  2.700600E-06  2.942429E-06  3.189797E-06  3.442188E-06
 3.699248E-06  3.960748E-06  4.226551E-06  4.496598E-06  4.770886E-06  5.049461E-06  5.332407E-06  5.619841E-06  5.911904E-06  6.207978E-06


SCALARS Calcite_VF           float 1
LOOKUP_TABLE default
 9.785621E-03  9.985290E-03  1.014895E-02  1.028983E-02  1.041428E-02  1.052622E-02  1.062833E-02  1.072257E-02  1.081043E-02  1.089309E-02
 1.097146E-02  1.104629E-02  1.111821E-02  1.118772E-02  1.125525E-02  1.132118E-02  1.138581E-02  1.144943E-02  1.151227E-02  1.157438E-02


SCALARS SiO2(am)_VF          float 1
LOOKUP_TABLE default
 7.157808E-04  7.987938E-04  8.696236E-04  9.319098E-04  9.876830E-04  1.038251E-03  1.084523E-03  1.127169E-03  1.166694E-03  1.203493E-03
 1.237881E-03  1.270114E-03  1.300402E-03  1.328920E-03  1.355815E-03  1.381213E-03  1.405221E-03  1.427931E-03  1.449425E-03  1.469722E-03


SCALARS Calcite_Rate         float 1
LOOKUP_TABLE default
-1.522894E-05 -1.695034E-05 -1.818318E-05 -1.911200E-05 -1.983622E-05 -2.041925E-05 -2.090399E-05 -2.132041E-05 -2.168983E-05 -2.202771E-05
-2.234545E-05 -2.265157E-05 -2.295255E-05 -2.325340E-05 -2.355805E-05 -2.386965E-05 -2.419076E-05 -2.452351E-05 -2.486969E-05 -2.522998E-05


SCALARS SiO2(am)_Rate        float 1
LOOKUP_TABLE default
 6.425443E-06  6.613311E-06  6.851077E-06  7.113509E-06  7.387594E-06  7.666076E-06  7.944795E-06  8.221374E-06  8.494498E-06  8.763497E-06
 9.028098E-06  9.288275E-06  9.544150E-06  9.795938E-06  1.004391E-05  1.028835E-05  1.052958E-05  1.076790E-05  1.100363E-05  1.123645E-05


SCALARS Calcite_Area         float 1
LOOKUP_TABLE default
 2.795081E-01  3.422647E-01  4.028377E-01  4.625011E-01  5.216836E-01  5.806302E-01  6.395456E-01  6.986306E-01  7.580911E-01  8.181391E-01
 8.789921E-01  9.408728E-01  1.004009E+00  1.068635E+00  1.134991E+00  1.203326E+00  1.273901E+00  1.346987E+00  1.422869E+00  1.501645E+00


SCALARS SiO2(am)_Area        float 1
LOOKUP_TABLE default
 1.118957E+05  1.078690E+05  1.048527E+05  1.024600E+05  1.004923E+05  9.883258E+04  9.740590E+04  9.616133E+04  9.506280E+04  9.408386E+04
 9.320455E+04  9.240953E+04  9.168669E+04  9.102640E+04  9.042083E+04  8.986356E+04  8.934927E+04  8.887350E+04  8.843247E+04  8.802398E+04


SCALARS Material_ID          int 1
LOOKUP_TABLE default
  1
  1
  1
  1
  1
  1
  1
  1
  1
  1
  1
  1
  1
  1
  1
  1
  1
  1
  1
  1


