# vtk DataFile Version 2.0
PFLOTRAN output
ASCII
DATASET UNSTRUCTURED_GRID
POINTS           84 float
 0.000000E+00  0.000000E+00  0.000000E+00
 7.580000E-03  0.000000E+00  0.000000E+00
 1.516000E-02  0.000000E+00  0.000000E+00
 2.274000E-02  0.000000E+00  0.000000E+00
 3.032000E-02  0.000000E+00  0.000000E+00
 3.790000E-02  0.000000E+00  0.000000E+00
 4.548000E-02  0.000000E+00  0.000000E+00
 5.306000E-02  0.000000E+00  0.000000E+00
 6.064000E-02  0.000000E+00  0.000000E+00
 6.822000E-02  0.000000E+00  0.000000E+00
 7.580000E-02  0.000000E+00  0.000000E+00
 8.338000E-02  0.000000E+00  0.000000E+00
 9.096000E-02  0.000000E+00  0.000000E+00
 9.854000E-02  0.000000E+00  0.000000E+00
 1.061200E-01  0.000000E+00  0.000000E+00
 1.137000E-01  0.000000E+00  0.000000E+00
 1.212800E-01  0.000000E+00  0.000000E+00
 1.288600E-01  0.000000E+00  0.000000E+00
 1.364400E-01  0.000000E+00  0.000000E+00
 1.440200E-01  0.000000E+00  0.000000E+00
 1.516000E-01  0.000000E+00  0.000000E+00
 0.000000E+00  1.125000E-02  0.000000E+00
 7.580000E-03  1.125000E-02  0.000000E+00
 1.516000E-02  1.125000E-02  0.000000E+00
 2.274000E-02  1.125000E-02  0.000000E+00
 3.032000E-02  1.125000E-02  0.000000E+00
 3.790000E-02  1.125000E-02  0.000000E+00
 4.548000E-02  1.125000E-02  0.000000E+00
 5.306000E-02  1.125000E-02  0.000000E+00
 6.064000E-02  1.125000E-02  0.000000E+00
 6.822000E-02  1.125000E-02  0.000000E+00
 7.580000E-02  1.125000E-02  0.000000E+00
 8.338000E-02  1.125000E-02  0.000000E+00
 9.096000E-02  1.125000E-02  0.000000E+00
 9.854000E-02  1.125000E-02  0.000000E+00
 1.061200E-01  1.125000E-02  0.000000E+00
 1.137000E-01  1.125000E-02  0.000000E+00
 1.212800E-01  1.125000E-02  0.000000E+00
 1.288600E-01  1.125000E-02  0.000000E+00
 1.364400E-01  1.125000E-02  0.000000E+00
 1.440200E-01  1.125000E-02  0.000000E+00
 1.516000E-01  1.125000E-02  0.000000E+00
 0.000000E+00  0.000000E+00  1.125000E-02
 7.580000E-03  0.000000E+00  1.125000E-02
 1.516000E-02  0.000000E+00  1.125000E-02
 2.274000E-02  0.000000E+00  1.125000E-02
 3.032000E-02  0.000000E+00  1.125000E-02
 3.790000E-02  0.000000E+00  1.125000E-02
 4.548000E-02  0.000000E+00  1.125000E-02
 5.306000E-02  0.000000E+00  1.125000E-02
 6.064000E-02  0.000000E+00  1.125000E-02
 6.822000E-02  0.000000E+00  1.125000E-02
 7.580000E-02  0.000000E+00  1.125000E-02
 8.338000E-02  0.000000E+00  1.125000E-02
 9.096000E-02  0.000000E+00  1.125000E-02
 9.854000E-02  0.000000E+00  1.125000E-02
 1.061200E-01  0.000000E+00  1.125000E-02
 1.137000E-01  0.000000E+00  1.125000E-02
 1.212800E-01  0.000000E+00  1.125000E-02
 1.288600E-01  0.000000E+00  1.125000E-02
 1.364400E-01  0.000000E+00  1.125000E-02
 1.440200E-01  0.000000E+00  1.125000E-02
 1.516000E-01  0.000000E+00  1.125000E-02
 0.000000E+00  1.125000E-02  1.125000E-02
 7.580000E-03  1.125000E-02  1.125000E-02
 1.516000E-02  1.125000E-02  1.125000E-02
 2.274000E-02  1.125000E-02  1.125000E-02
 3.032000E-02  1.125000E-02  1.125000E-02
 3.790000E-02  1.125000E-02  1.125000E-02
 4.548000E-02  1.125000E-02  1.125000E-02
 5.306000E-02  1.125000E-02  1.125000E-02
 6.064000E-02  1.125000E-02  1.125000E-02
 6.822000E-02  1.125000E-02  1.125000E-02
 7.580000E-02  1.125000E-02  1.125000E-02
 8.338000E-02  1.125000E-02  1.125000E-02
 9.096000E-02  1.125000E-02  1.125000E-02
 9.854000E-02  1.125000E-02  1.125000E-02
 1.061200E-01  1.125000E-02  1.125000E-02
 1.137000E-01  1.125000E-02  1.125000E-02
 1.212800E-01  1.125000E-02  1.125000E-02
 1.288600E-01  1.125000E-02  1.125000E-02
 1.364400E-01  1.125000E-02  1.125000E-02
 1.440200E-01  1.125000E-02  1.125000E-02
 1.516000E-01  1.125000E-02  1.125000E-02
CELLS           20          180
8        0        1       22       21       42       43       64       63
8        1        2       23       22       43       44       65       64
8        2        3       24       23       44       45       66       65
8        3        4       25       24       45       46       67       66
8        4        5       26       25       46       47       68       67
8        5        6       27       26       47       48       69       68
8        6        7       28       27       48       49       70       69
8        7        8       29       28       49       50       71       70
8        8        9       30       29       50       51       72       71
8        9       10       31       30       51       52       73       72
8       10       11       32       31       52       53       74       73
8       11       12       33       32       53       54       75       74
8       12       13       34       33       54       55       76       75
8       13       14       35       34       55       56       77       76
8       14       15       36       35       56       57       78       77
8       15       16       37       36       57       58       79       78
8       16       17       38       37       58       59       80       79
8       17       18       39       38       59       60       81       80
8       18       19       40       39       60       61       82       81
8       19       20       41       40       61       62       83       82

CELL_TYPES           20
12
12
12
12
12
12
12
12
12
12
12
12
12
12
12
12
12
12
12
12

CELL_DATA       20
SCALARS Porosity             float 1
LOOKUP_TABLE default
 9.875048E-01  9.870560E-01  9.867616E-01  9.865416E-01  9.863639E-01  9.862125E-01  9.860786E-01  9.859569E-01  9.858441E-01  9.857380E-01
 9.856374E-01  9.855413E-01  9.854493E-01  9.853611E-01  9.852767E-01  9.851961E-01  9.851194E-01  9.850470E-01  9.849788E-01  9.849154E-01


SCALARS Permeability_X       float 1
LOOKUP_TABLE default
 1.000000E-12  1.000000E-12  1.000000E-12  1.000000E-12  1.000000E-12  1.000000E-12  1.000000E-12  1.000000E-12  1.000000E-12  1.000000E-12
 1.000000E-12  1.000000E-12  1.000000E-12  1.000000E-12  1.000000E-12  1.000000E-12  1.000000E-12  1.000000E-12  1.000000E-12  1.000000E-12


SCALARS Liquid_Pressure      float 1
LOOKUP_TABLE default
 7.500296E+06  7.500281E+06  7.500266E+06  7.500250E+06  7.500235E+06  7.500220E+06  7.500205E+06  7.500190E+06  7.500175E+06  7.500159E+06
 7.500144E+06  7.500129E+06  7.500114E+06  7.500099E+06  7.500083E+06  7.500068E+06  7.500053E+06  7.500038E+06  7.500023E+06  7.500008E+06


SCALARS Temperature          float 1
LOOKUP_TABLE default
 1.500000E+02  1.499999E+02  1.499999E+02  1.499998E+02  1.499998E+02  1.499997E+02  1.499997E+02  1.499997E+02  1.499996E+02  1.499996E+02
 1.499996E+02  1.499996E+02  1.499996E+02  1.499996E+02  1.499996E+02  1.499996E+02  1.499996E+02  1.499997E+02  1.499998E+02  1.499999E+02


SCALARS pH                   float 1
LOOKUP_TABLE default
 4.976034E+00  5.144999E+00  5.266893E+00  5.361248E+00  5.437932E+00  5.502429E+00  5.558045E+00  5.606897E+00  5.650406E+00  5.689563E+00
 5.725074E+00  5.757455E+00  5.787089E+00  5.814263E+00  5.839195E+00  5.862056E+00  5.882982E+00  5.902088E+00  5.919472E+00  5.935192E+00


SCALARS Total_H+             float 1
LOOKUP_TABLE default
-4.655248E-04 -6.092044E-04 -7.504878E-04 -8.886420E-04 -1.023787E-03 -1.156211E-03 -1.286176E-03 -1.413865E-03 -1.539361E-03 -1.662648E-03
-1.783611E-03 -1.902041E-03 -2.017650E-03 -2.130075E-03 -2.238904E-03 -2.343687E-03 -2.443964E-03 -2.539292E-03 -2.629267E-03 -2.713364E-03


SCALARS Total_SiO2(aq)       float 1
LOOKUP_TABLE default
 1.405096E-02  1.404096E-02  1.402964E-02  1.401718E-02  1.400370E-02  1.398930E-02  1.397406E-02  1.395806E-02  1.394133E-02  1.392394E-02
 1.390592E-02  1.388731E-02  1.386815E-02  1.384849E-02  1.382834E-02  1.380775E-02  1.378676E-02  1.376540E-02  1.374371E-02  1.372178E-02


SCALARS Total_Al+++          float 1
LOOKUP_TABLE default
 6.015348E-05  6.015348E-05  6.015348E-05  6.015348E-05  6.015348E-05  6.015348E-05  6.015349E-05  6.015349E-05  6.015349E-05  6.015349E-05
 6.015349E-05  6.015349E-05  6.015350E-05  6.015350E-05  6.015350E-05  6.015350E-05  6.015350E-05  6.015350E-05  6.015350E-05  6.015350E-05


SCALARS Total_Ca++           float 1
LOOKUP_TABLE default
 1.402295E-04  2.120693E-04  2.827110E-04  3.517881E-04  4.193607E-04  4.855724E-04  5.505550E-04  6.143994E-04  6.771477E-04  7.387913E-04
 7.992725E-04  8.584877E-04  9.162919E-04  9.725048E-04  1.026919E-03  1.079310E-03  1.129449E-03  1.177113E-03  1.222101E-03  1.264149E-03


SCALARS Total_Cl-            float 1
LOOKUP_TABLE default
 2.513233E-02  2.513233E-02  2.513233E-02  2.513233E-02  2.513233E-02  2.513233E-02  2.513233E-02  2.513233E-02  2.513233E-02  2.513233E-02
 2.513233E-02  2.513233E-02  2.513233E-02  2.513233E-02  2.513233E-02  2.513233E-02  2.513233E-02  2.513233E-02  2.513233E-02  2.513233E-02


SCALARS Total_CO2(aq)        float 1
LOOKUP_TABLE default
 1.363693E-02  1.370877E-02  1.377941E-02  1.384849E-02  1.391606E-02  1.398227E-02  1.404725E-02  1.411110E-02  1.417385E-02  1.423549E-02
 1.429597E-02  1.435519E-02  1.441299E-02  1.446920E-02  1.452362E-02  1.457601E-02  1.462615E-02  1.467381E-02  1.471880E-02  1.476085E-02


SCALARS Total_Na+            float 1
LOOKUP_TABLE default
 3.122900E-02  3.122900E-02  3.122900E-02  3.122900E-02  3.122900E-02  3.122900E-02  3.122900E-02  3.122900E-02  3.122900E-02  3.122900E-02
 3.122900E-02  3.122900E-02  3.122900E-02  3.122900E-02  3.122900E-02  3.122900E-02  3.122900E-02  3.122900E-02  3.122900E-02  3.122900E-02


SCALARS Total_K+             float 1
LOOKUP_TABLE default
 2.655416E-03  2.655416E-03  2.655416E-03  2.655416E-03  2.655416E-03  2.655416E-03  2.655416E-03  2.655416E-03  2.655416E-03  2.655416E-03
 2.655416E-03  2.655416E-03  2.655416E-03  2.655416E-03  2.655416E-03  2.655416E-03  2.655415E-03  2.655415E-03  2.655415E-03  2.655415E-03


SCALARS Total_Mg++           float 1
LOOKUP_TABLE default
 8.216757E-07  8.216757E-07  8.216757E-07  8.216757E-07  8.216757E-07  8.216757E-07  8.216757E-07  8.216757E-07  8.216757E-07  8.216757E-07
 8.216757E-07  8.216757E-07  8.216756E-07  8.216756E-07  8.216756E-07  8.216756E-07  8.216756E-07  8.216756E-07  8.216756E-07  8.216756E-07


SCALARS Total_Fe++           float 1
LOOKUP_TABLE default
 1.251593E-06  1.251593E-06  1.251593E-06  1.251593E-06  1.251593E-06  1.251593E-06  1.251593E-06  1.251593E-06  1.251593E-06  1.251593E-06
 1.251593E-06  1.251593E-06  1.251593E-06  1.251592E-06  1.251592E-06  1.251592E-06  1.251592E-06  1.251592E-06  1.251592E-06  1.251592E-06


SCALARS Total_Cu++           float 1
LOOKUP_TABLE default
 9.952832E-11  9.952832E-11  9.952832E-11  9.952832E-11  9.952832E-11  9.952832E-11  9.952832E-11  9.952832E-11  9.952832E-11  9.952832E-11
 9.952832E-11  9.952832E-11  9.952832E-11  9.952832E-11  9.952832E-11  9.952832E-11  9.952832E-11  9.952831E-11  9.952831E-11  9.952831E-11


SCALARS Total_SO4--          float 1
LOOKUP_TABLE default
 4.376188E-03  4.376188E-03  4.376188E-03  4.376188E-03  4.376188E-03  4.376188E-03  4.376188E-03  4.376188E-03  4.376188E-03  4.376188E-03
 4.376188E-03  4.376188E-03  4.376188E-03  4.376188E-03  4.376188E-03  4.376188E-03  4.376188E-03  4.376188E-03  4.376188E-03  4.376188E-03


SCALARS Total_Tracer         float 1
LOOKUP_TABLE default
 9.952832E-11  9.952832E-11  9.952832E-11  9.952832E-11  9.952832E-11  9.952832E-11  9.952832E-11  9.952832E-11  9.952832E-11  9.952832E-11
 9.952832E-11  9.952832E-11  9.952832E-11  9.952832E-11  9.952832E-11  9.952832E-11  9.952832E-11  9.952831E-11  9.952831E-11  9.952831E-11


SCALARS Active_Gas_CO2(g)    float 1
LOOKUP_TABLE default
 0.000000E+00  0.000000E+00  0.000000E+00  0.000000E+00  0.000000E+00  0.000000E+00  0.000000E+00  0.000000E+00  0.000000E+00  0.000000E+00
 0.000000E+00  0.000000E+00  0.000000E+00  0.000000E+00  0.000000E+00  0.000000E+00  0.000000E+00  0.000000E+00  0.000000E+00  0.000000E+00


SCALARS HCO3-                float 1
LOOKUP_TABLE default
 2.875380E-04  4.223186E-04  5.565110E-04  6.882923E-04  8.173711E-04  9.438435E-04  1.067872E-03  1.189581E-03  1.309022E-03  1.426165E-03
 1.540890E-03  1.653001E-03  1.762227E-03  1.868235E-03  1.970647E-03  2.069056E-03  2.163052E-03  2.252239E-03  2.336265E-03  2.414666E-03


SCALARS H2SiO4--             float 1
LOOKUP_TABLE default
 1.076666E-12  2.343881E-12  4.107836E-12  6.341234E-12  9.023171E-12  1.213784E-11  1.567226E-11  1.961401E-11  2.394925E-11  2.866079E-11
 3.372643E-11  3.911745E-11  4.479744E-11  5.072161E-11  5.683661E-11  6.308113E-11  6.938731E-11  7.568283E-11  8.189375E-11  8.793408E-11


SCALARS H3SiO4-              float 1
LOOKUP_TABLE default
 2.290745E-06  3.378027E-06  4.469297E-06  5.549314E-06  6.615103E-06  7.666882E-06  8.705471E-06  9.731431E-06  1.074474E-05  1.174466E-05
 1.272972E-05  1.369771E-05  1.464572E-05  1.557025E-05  1.646730E-05  1.733254E-05  1.816154E-05  1.894997E-05  1.969383E-05  2.038815E-05


SCALARS Calcite_VF           float 1
LOOKUP_TABLE default
 1.216196E-02  1.256370E-02  1.282424E-02  1.301749E-02  1.317321E-02  1.330605E-02  1.342408E-02  1.353211E-02  1.363313E-02  1.372902E-02
 1.382098E-02  1.390973E-02  1.399567E-02  1.407895E-02  1.415954E-02  1.423731E-02  1.431204E-02  1.438345E-02  1.445126E-02  1.451506E-02


SCALARS SiO2(am)_VF          float 1
LOOKUP_TABLE default
 2.992029E-04  3.463874E-04  3.815237E-04  4.095755E-04  4.328229E-04  4.525162E-04  4.694204E-04  4.840410E-04  4.967320E-04  5.077533E-04
 5.173034E-04  5.255396E-04  5.325907E-04  5.385656E-04  5.435589E-04  5.476547E-04  5.509299E-04  5.534556E-04  5.552985E-04  5.565208E-04


SCALARS Calcite_Rate         float 1
LOOKUP_TABLE default
-9.406312E-05 -9.543092E-05 -9.372995E-05 -9.155076E-05 -8.946044E-05 -8.756935E-05 -8.586124E-05 -8.428169E-05 -8.276544E-05 -8.124562E-05
-7.965739E-05 -7.794008E-05 -7.603905E-05 -7.390788E-05 -7.151082E-05 -6.882525E-05 -6.584389E-05 -6.257622E-05 -5.904871E-05 -5.531284E-05


SCALARS SiO2(am)_Rate        float 1
LOOKUP_TABLE default
 1.122981E-05  1.329384E-05  1.504235E-05  1.655570E-05  1.789434E-05  1.909902E-05  2.019742E-05  2.120872E-05  2.214637E-05  2.301982E-05
 2.383566E-05  2.459836E-05  2.531076E-05  2.597455E-05  2.659052E-05  2.715890E-05  2.767958E-05  2.815234E-05  2.857706E-05  2.895308E-05


SCALARS Calcite_Area         float 1
LOOKUP_TABLE default
 2.519014E+00  3.484401E+00  4.273405E+00  4.957410E+00  5.578040E+00  6.161579E+00  6.725523E+00  7.281931E+00  7.839245E+00  8.403308E+00
 8.977952E+00  9.565330E+00  1.016611E+01  1.077957E+01  1.140374E+01  1.203545E+01  1.267049E+01  1.330381E+01  1.392980E+01  1.454122E+01


SCALARS SiO2(am)_Area        float 1
LOOKUP_TABLE default
 1.501029E+05  1.429648E+05  1.384493E+05  1.352276E+05  1.327748E+05  1.308320E+05  1.292536E+05  1.279495E+05  1.268608E+05  1.259462E+05
 1.251762E+05  1.245284E+05  1.239859E+05  1.235349E+05  1.231645E+05  1.228654E+05  1.226299E+05  1.224512E+05  1.223233E+05  1.222410E+05


SCALARS Material_ID          int 1
LOOKUP_TABLE default
  1
  1
  1
  1
  1
  1
  1
  1
  1
  1
  1
  1
  1
  1
  1
  1
  1
  1
  1
  1


