# vtk DataFile Version 2.0
PFLOTRAN output
ASCII
DATASET UNSTRUCTURED_GRID
POINTS           84 float
 0.000000E+00  0.000000E+00  0.000000E+00
 7.580000E-03  0.000000E+00  0.000000E+00
 1.516000E-02  0.000000E+00  0.000000E+00
 2.274000E-02  0.000000E+00  0.000000E+00
 3.032000E-02  0.000000E+00  0.000000E+00
 3.790000E-02  0.000000E+00  0.000000E+00
 4.548000E-02  0.000000E+00  0.000000E+00
 5.306000E-02  0.000000E+00  0.000000E+00
 6.064000E-02  0.000000E+00  0.000000E+00
 6.822000E-02  0.000000E+00  0.000000E+00
 7.580000E-02  0.000000E+00  0.000000E+00
 8.338000E-02  0.000000E+00  0.000000E+00
 9.096000E-02  0.000000E+00  0.000000E+00
 9.854000E-02  0.000000E+00  0.000000E+00
 1.061200E-01  0.000000E+00  0.000000E+00
 1.137000E-01  0.000000E+00  0.000000E+00
 1.212800E-01  0.000000E+00  0.000000E+00
 1.288600E-01  0.000000E+00  0.000000E+00
 1.364400E-01  0.000000E+00  0.000000E+00
 1.440200E-01  0.000000E+00  0.000000E+00
 1.516000E-01  0.000000E+00  0.000000E+00
 0.000000E+00  1.125000E-02  0.000000E+00
 7.580000E-03  1.125000E-02  0.000000E+00
 1.516000E-02  1.125000E-02  0.000000E+00
 2.274000E-02  1.125000E-02  0.000000E+00
 3.032000E-02  1.125000E-02  0.000000E+00
 3.790000E-02  1.125000E-02  0.000000E+00
 4.548000E-02  1.125000E-02  0.000000E+00
 5.306000E-02  1.125000E-02  0.000000E+00
 6.064000E-02  1.125000E-02  0.000000E+00
 6.822000E-02  1.125000E-02  0.000000E+00
 7.580000E-02  1.125000E-02  0.000000E+00
 8.338000E-02  1.125000E-02  0.000000E+00
 9.096000E-02  1.125000E-02  0.000000E+00
 9.854000E-02  1.125000E-02  0.000000E+00
 1.061200E-01  1.125000E-02  0.000000E+00
 1.137000E-01  1.125000E-02  0.000000E+00
 1.212800E-01  1.125000E-02  0.000000E+00
 1.288600E-01  1.125000E-02  0.000000E+00
 1.364400E-01  1.125000E-02  0.000000E+00
 1.440200E-01  1.125000E-02  0.000000E+00
 1.516000E-01  1.125000E-02  0.000000E+00
 0.000000E+00  0.000000E+00  1.125000E-02
 7.580000E-03  0.000000E+00  1.125000E-02
 1.516000E-02  0.000000E+00  1.125000E-02
 2.274000E-02  0.000000E+00  1.125000E-02
 3.032000E-02  0.000000E+00  1.125000E-02
 3.790000E-02  0.000000E+00  1.125000E-02
 4.548000E-02  0.000000E+00  1.125000E-02
 5.306000E-02  0.000000E+00  1.125000E-02
 6.064000E-02  0.000000E+00  1.125000E-02
 6.822000E-02  0.000000E+00  1.125000E-02
 7.580000E-02  0.000000E+00  1.125000E-02
 8.338000E-02  0.000000E+00  1.125000E-02
 9.096000E-02  0.000000E+00  1.125000E-02
 9.854000E-02  0.000000E+00  1.125000E-02
 1.061200E-01  0.000000E+00  1.125000E-02
 1.137000E-01  0.000000E+00  1.125000E-02
 1.212800E-01  0.000000E+00  1.125000E-02
 1.288600E-01  0.000000E+00  1.125000E-02
 1.364400E-01  0.000000E+00  1.125000E-02
 1.440200E-01  0.000000E+00  1.125000E-02
 1.516000E-01  0.000000E+00  1.125000E-02
 0.000000E+00  1.125000E-02  1.125000E-02
 7.580000E-03  1.125000E-02  1.125000E-02
 1.516000E-02  1.125000E-02  1.125000E-02
 2.274000E-02  1.125000E-02  1.125000E-02
 3.032000E-02  1.125000E-02  1.125000E-02
 3.790000E-02  1.125000E-02  1.125000E-02
 4.548000E-02  1.125000E-02  1.125000E-02
 5.306000E-02  1.125000E-02  1.125000E-02
 6.064000E-02  1.125000E-02  1.125000E-02
 6.822000E-02  1.125000E-02  1.125000E-02
 7.580000E-02  1.125000E-02  1.125000E-02
 8.338000E-02  1.125000E-02  1.125000E-02
 9.096000E-02  1.125000E-02  1.125000E-02
 9.854000E-02  1.125000E-02  1.125000E-02
 1.061200E-01  1.125000E-02  1.125000E-02
 1.137000E-01  1.125000E-02  1.125000E-02
 1.212800E-01  1.125000E-02  1.125000E-02
 1.288600E-01  1.125000E-02  1.125000E-02
 1.364400E-01  1.125000E-02  1.125000E-02
 1.440200E-01  1.125000E-02  1.125000E-02
 1.516000E-01  1.125000E-02  1.125000E-02
CELLS           20          180
8        0        1       22       21       42       43       64       63
8        1        2       23       22       43       44       65       64
8        2        3       24       23       44       45       66       65
8        3        4       25       24       45       46       67       66
8        4        5       26       25       46       47       68       67
8        5        6       27       26       47       48       69       68
8        6        7       28       27       48       49       70       69
8        7        8       29       28       49       50       71       70
8        8        9       30       29       50       51       72       71
8        9       10       31       30       51       52       73       72
8       10       11       32       31       52       53       74       73
8       11       12       33       32       53       54       75       74
8       12       13       34       33       54       55       76       75
8       13       14       35       34       55       56       77       76
8       14       15       36       35       56       57       78       77
8       15       16       37       36       57       58       79       78
8       16       17       38       37       58       59       80       79
8       17       18       39       38       59       60       81       80
8       18       19       40       39       60       61       82       81
8       19       20       41       40       61       62       83       82

CELL_TYPES           20
12
12
12
12
12
12
12
12
12
12
12
12
12
12
12
12
12
12
12
12

CELL_DATA       20
SCALARS Porosity             float 1
LOOKUP_TABLE default
 9.885616E-01  9.881615E-01  9.878639E-01  9.876256E-01  9.874257E-01  9.872523E-01  9.870979E-01  9.869575E-01  9.868277E-01  9.867060E-01
 9.865905E-01  9.864800E-01  9.863733E-01  9.862696E-01  9.861683E-01  9.860689E-01  9.859709E-01  9.858742E-01  9.857785E-01  9.856839E-01


SCALARS Permeability_X       float 1
LOOKUP_TABLE default
 1.000000E-12  1.000000E-12  1.000000E-12  1.000000E-12  1.000000E-12  1.000000E-12  1.000000E-12  1.000000E-12  1.000000E-12  1.000000E-12
 1.000000E-12  1.000000E-12  1.000000E-12  1.000000E-12  1.000000E-12  1.000000E-12  1.000000E-12  1.000000E-12  1.000000E-12  1.000000E-12


SCALARS Liquid_Pressure      float 1
LOOKUP_TABLE default
 7.500296E+06  7.500281E+06  7.500266E+06  7.500250E+06  7.500235E+06  7.500220E+06  7.500205E+06  7.500190E+06  7.500175E+06  7.500159E+06
 7.500144E+06  7.500129E+06  7.500114E+06  7.500099E+06  7.500083E+06  7.500068E+06  7.500053E+06  7.500038E+06  7.500023E+06  7.500008E+06


SCALARS Temperature          float 1
LOOKUP_TABLE default
 1.500000E+02  1.500000E+02  1.499999E+02  1.499999E+02  1.499999E+02  1.499999E+02  1.499998E+02  1.499998E+02  1.499998E+02  1.499998E+02
 1.499998E+02  1.499997E+02  1.499997E+02  1.499997E+02  1.499997E+02  1.499998E+02  1.499998E+02  1.499998E+02  1.499999E+02  1.499999E+02


SCALARS pH                   float 1
LOOKUP_TABLE default
 4.851187E+00  4.963524E+00  5.058088E+00  5.138288E+00  5.207380E+00  5.267871E+00  5.321611E+00  5.369962E+00  5.413942E+00  5.454320E+00
 5.491690E+00  5.526515E+00  5.559161E+00  5.589918E+00  5.619022E+00  5.646660E+00  5.672985E+00  5.698120E+00  5.722162E+00  5.745127E+00


SCALARS Total_H+             float 1
LOOKUP_TABLE default
-3.875118E-04 -4.567828E-04 -5.288885E-04 -6.024518E-04 -6.768413E-04 -7.517705E-04 -8.271241E-04 -9.028763E-04 -9.790479E-04 -1.055683E-03
-1.132836E-03 -1.210561E-03 -1.288910E-03 -1.367924E-03 -1.447630E-03 -1.528041E-03 -1.609145E-03 -1.690910E-03 -1.773272E-03 -1.855921E-03


SCALARS Total_SiO2(aq)       float 1
LOOKUP_TABLE default
 1.405311E-02  1.404617E-02  1.403860E-02  1.403043E-02  1.402168E-02  1.401239E-02  1.400259E-02  1.399231E-02  1.398157E-02  1.397039E-02
 1.395879E-02  1.394677E-02  1.393435E-02  1.392154E-02  1.390836E-02  1.389480E-02  1.388089E-02  1.386662E-02  1.385200E-02  1.383709E-02


SCALARS Total_Al+++          float 1
LOOKUP_TABLE default
 6.015348E-05  6.015348E-05  6.015348E-05  6.015348E-05  6.015348E-05  6.015348E-05  6.015348E-05  6.015348E-05  6.015348E-05  6.015348E-05
 6.015349E-05  6.015349E-05  6.015349E-05  6.015349E-05  6.015349E-05  6.015349E-05  6.015349E-05  6.015349E-05  6.015349E-05  6.015349E-05


SCALARS Total_Ca++           float 1
LOOKUP_TABLE default
 1.012230E-04  1.358585E-04  1.719113E-04  2.086930E-04  2.458877E-04  2.833523E-04  3.210291E-04  3.589052E-04  3.969910E-04  4.353086E-04
 4.738849E-04  5.127477E-04  5.519222E-04  5.914291E-04  6.312823E-04  6.714874E-04  7.120396E-04  7.529220E-04  7.941030E-04  8.354278E-04


SCALARS Total_Cl-            float 1
LOOKUP_TABLE default
 2.513233E-02  2.513233E-02  2.513233E-02  2.513233E-02  2.513233E-02  2.513233E-02  2.513233E-02  2.513233E-02  2.513233E-02  2.513233E-02
 2.513233E-02  2.513233E-02  2.513233E-02  2.513233E-02  2.513233E-02  2.513233E-02  2.513233E-02  2.513233E-02  2.513233E-02  2.513233E-02


SCALARS Total_CO2(aq)        float 1
LOOKUP_TABLE default
 1.359792E-02  1.363256E-02  1.366861E-02  1.370539E-02  1.374259E-02  1.378005E-02  1.381773E-02  1.385561E-02  1.389369E-02  1.393201E-02
 1.397058E-02  1.400945E-02  1.404862E-02  1.408813E-02  1.412798E-02  1.416819E-02  1.420874E-02  1.424962E-02  1.429080E-02  1.433213E-02


SCALARS Total_Na+            float 1
LOOKUP_TABLE default
 3.122900E-02  3.122900E-02  3.122900E-02  3.122900E-02  3.122900E-02  3.122900E-02  3.122900E-02  3.122900E-02  3.122900E-02  3.122900E-02
 3.122900E-02  3.122900E-02  3.122900E-02  3.122900E-02  3.122900E-02  3.122900E-02  3.122900E-02  3.122900E-02  3.122900E-02  3.122900E-02


SCALARS Total_K+             float 1
LOOKUP_TABLE default
 2.655416E-03  2.655416E-03  2.655416E-03  2.655416E-03  2.655416E-03  2.655416E-03  2.655416E-03  2.655416E-03  2.655416E-03  2.655416E-03
 2.655416E-03  2.655416E-03  2.655416E-03  2.655416E-03  2.655416E-03  2.655416E-03  2.655416E-03  2.655415E-03  2.655415E-03  2.655415E-03


SCALARS Total_Mg++           float 1
LOOKUP_TABLE default
 8.216757E-07  8.216757E-07  8.216757E-07  8.216757E-07  8.216757E-07  8.216757E-07  8.216757E-07  8.216757E-07  8.216757E-07  8.216757E-07
 8.216757E-07  8.216757E-07  8.216757E-07  8.216756E-07  8.216756E-07  8.216756E-07  8.216756E-07  8.216756E-07  8.216756E-07  8.216756E-07


SCALARS Total_Fe++           float 1
LOOKUP_TABLE default
 1.251593E-06  1.251593E-06  1.251593E-06  1.251593E-06  1.251593E-06  1.251593E-06  1.251593E-06  1.251593E-06  1.251593E-06  1.251593E-06
 1.251593E-06  1.251593E-06  1.251593E-06  1.251593E-06  1.251592E-06  1.251592E-06  1.251592E-06  1.251592E-06  1.251592E-06  1.251592E-06


SCALARS Total_Cu++           float 1
LOOKUP_TABLE default
 9.952832E-11  9.952832E-11  9.952832E-11  9.952832E-11  9.952832E-11  9.952832E-11  9.952832E-11  9.952832E-11  9.952832E-11  9.952832E-11
 9.952832E-11  9.952832E-11  9.952832E-11  9.952832E-11  9.952832E-11  9.952832E-11  9.952832E-11  9.952832E-11  9.952832E-11  9.952831E-11


SCALARS Total_SO4--          float 1
LOOKUP_TABLE default
 4.376188E-03  4.376188E-03  4.376188E-03  4.376188E-03  4.376188E-03  4.376188E-03  4.376188E-03  4.376188E-03  4.376188E-03  4.376188E-03
 4.376188E-03  4.376188E-03  4.376188E-03  4.376188E-03  4.376188E-03  4.376188E-03  4.376188E-03  4.376188E-03  4.376188E-03  4.376188E-03


SCALARS Total_Tracer         float 1
LOOKUP_TABLE default
 9.952832E-11  9.952832E-11  9.952832E-11  9.952832E-11  9.952832E-11  9.952832E-11  9.952832E-11  9.952832E-11  9.952832E-11  9.952832E-11
 9.952832E-11  9.952832E-11  9.952832E-11  9.952832E-11  9.952832E-11  9.952832E-11  9.952832E-11  9.952832E-11  9.952832E-11  9.952831E-11


SCALARS Active_Gas_CO2(g)    float 1
LOOKUP_TABLE default
 0.000000E+00  0.000000E+00  0.000000E+00  0.000000E+00  0.000000E+00  0.000000E+00  0.000000E+00  0.000000E+00  0.000000E+00  0.000000E+00
 0.000000E+00  0.000000E+00  0.000000E+00  0.000000E+00  0.000000E+00  0.000000E+00  0.000000E+00  0.000000E+00  0.000000E+00  0.000000E+00


SCALARS HCO3-                float 1
LOOKUP_TABLE default
 2.162105E-04  2.794499E-04  3.466345E-04  4.159349E-04  4.864511E-04  5.577380E-04  6.295822E-04  7.018929E-04  7.746459E-04  8.478525E-04
 9.215412E-04  9.957470E-04  1.070504E-03  1.145838E-03  1.221767E-03  1.298291E-03  1.375393E-03  1.453031E-03  1.531141E-03  1.609421E-03


SCALARS H2SiO4--             float 1
LOOKUP_TABLE default
 6.058032E-13  1.016009E-12  1.570022E-12  2.270761E-12  3.120379E-12  4.121240E-12  5.276331E-12  6.589400E-12  8.064985E-12  9.708378E-12
 1.152555E-11  1.352306E-11  1.570791E-11  1.808735E-11  2.066873E-11  2.345916E-11  2.646525E-11  2.969264E-11  3.314554E-11  3.681641E-11


SCALARS H3SiO4-              float 1
LOOKUP_TABLE default
 1.718622E-06  2.224933E-06  2.764786E-06  3.323714E-06  3.894579E-06  4.473842E-06  5.059804E-06  5.651755E-06  6.249525E-06  6.853237E-06
 7.463166E-06  8.079645E-06  8.703007E-06  9.333535E-06  9.971426E-06  1.061675E-05  1.126942E-05  1.192916E-05  1.259545E-05  1.326575E-05


SCALARS Calcite_VF           float 1
LOOKUP_TABLE default
 1.098247E-02  1.131418E-02  1.155799E-02  1.175164E-02  1.191328E-02  1.205327E-02  1.217806E-02  1.229192E-02  1.239781E-02  1.249783E-02
 1.259355E-02  1.268612E-02  1.277644E-02  1.286519E-02  1.295290E-02  1.303999E-02  1.312674E-02  1.321340E-02  1.330010E-02  1.338672E-02


SCALARS SiO2(am)_VF          float 1
LOOKUP_TABLE default
 4.417276E-04  5.088334E-04  5.621715E-04  6.066973E-04  6.449609E-04  6.784747E-04  7.082162E-04  7.348565E-04  7.588770E-04  7.806357E-04
 8.004058E-04  8.184013E-04  8.347927E-04  8.497186E-04  8.632929E-04  8.756112E-04  8.867540E-04  8.967907E-04  9.057816E-04  9.137629E-04


SCALARS Calcite_Rate         float 1
LOOKUP_TABLE default
-4.207169E-05 -4.605782E-05 -4.791339E-05 -4.885156E-05 -4.936960E-05 -4.969734E-05 -4.994901E-05 -5.018386E-05 -5.043297E-05 -5.071191E-05
-5.102720E-05 -5.137967E-05 -5.176620E-05 -5.218065E-05 -5.261432E-05 -5.305608E-05 -5.349239E-05 -5.390719E-05 -5.428184E-05 -5.459500E-05


SCALARS SiO2(am)_Rate        float 1
LOOKUP_TABLE default
 8.369506E-06  9.225068E-06  1.007294E-05  1.087762E-05  1.163402E-05  1.234545E-05  1.301720E-05  1.365457E-05  1.426235E-05  1.484464E-05
 1.540488E-05  1.594598E-05  1.647032E-05  1.697987E-05  1.747620E-05  1.796056E-05  1.843388E-05  1.889678E-05  1.934962E-05  1.979133E-05


SCALARS Calcite_Area         float 1
LOOKUP_TABLE default
 8.942255E-01  1.205294E+00  1.492157E+00  1.761955E+00  2.019771E+00  2.269872E+00  2.515918E+00  2.761090E+00  3.008196E+00  3.259763E+00
 3.518113E+00  3.785419E+00  4.063750E+00  4.355102E+00  4.661416E+00  4.984588E+00  5.326466E+00  5.688829E+00  6.073359E+00  6.480595E+00


SCALARS SiO2(am)_Area        float 1
LOOKUP_TABLE default
 1.315656E+05  1.254965E+05  1.213922E+05  1.183469E+05  1.159600E+05  1.140202E+05  1.124034E+05  1.110307E+05  1.098491E+05  1.088214E+05
 1.079206E+05  1.071264E+05  1.064233E+05  1.057993E+05  1.052447E+05  1.047518E+05  1.043142E+05  1.039267E+05  1.035849E+05  1.032856E+05


SCALARS Material_ID          int 1
LOOKUP_TABLE default
  1
  1
  1
  1
  1
  1
  1
  1
  1
  1
  1
  1
  1
  1
  1
  1
  1
  1
  1
  1


